 written on  8Apr2026 at 11:56:44 
           8
         447
    1    1    1    1    1    1    2    2    2    2    2    2    1    1    1
    1    1    1    1    1    1    1    1    1    1    1    1    2    2    2
    1    1    1    1    1    1    1    1    1    1    1    1    1    1    1
    1    1    1    1    1    1    1    1    1    1    1    1    2    2    2
    1    1    1    1    1    1    1    1    1    1    1    1    1    1    1
    1    1    1    1    1    1    1    1    1    1    1    1    1    1    1
    1    1    1    1    1    1    1    1    1    1    1    1    1    1    1
    1    1    1    1    1    1    1    1    1    1    1    1    1    1    1
    1    1    1    1    1    1    1    1    1    1    1    1    1    1    1
    1    1    1    1    1    1    1    1    1    1    1    1    1    1    1
    1    1    1    1    1    1    1    1    1    1    1    1    1    1    1
    1    1    1    1    1    1    1    1    1    1    1    1    1    1    1
    1    1    1    1    1    1    1    1    1    1    1    1    1    1    1
    1    1    1    1    1    1    1    1    1    2    2    2    1    1    1
    1    1    1    1    1    1    1    1    1    1    1    1    1    1    1
    1    1    1    1    1    1    1    1    1    1    1    1    1    1    1
    2    2    2    1    1    1    1    1    1    1    1    1    1    1    1
    1    1    1    1    1    1    1    1    1    1    1    1    1    1    1
    1    1    1    1    1    1    1    1    1    1    1    1    1    1    1
    1    1    1    1    1    1    1    1    1    1    1    1    1    1    1
    1    1    1    1    1    1    1    1    1    1    1    1    1    1    1
    1    1    1    1    1    1    1    1    1    1    1    1    1    1    1
    1    1    1    1    1    1    1    1    1    1    1    1    1    1    1
    1    1    1    1    1    1    1    1    1    1    1    1    1    1    1
    1    1    1    1    1    1    1    1    1    1    1    1    1    1    1
    1    1    1    1    1    1    1    1    1    1    1    1    2    2    2
    1    1    1    1    1    1    1    1    1    1    1    1    1    1    1
    1    1    1    1    1    1    1    1    1    1    1    1    2    2    2
    1    1    1    1    1    1    1    1    1    1    1    1    1    1    1
    2    2    2    2    2    2    1    1    1    1    1    1
   -7   -4   -1    1    1    0.000940   -0.000490
   -7   -4   -1    2    1   -0.000595   -0.000019
   -7   -4   -1    3    1    0.001322   -0.000753
   -7   -4   -1    4    1    0.000279    0.000718
   -7   -4   -1    5    1   -0.001185   -0.000241
   -7   -4   -1    6    1   -0.000422   -0.000929
   -7   -4   -1    7    1   -0.000810   -0.000218
   -7   -4   -1    8    1   -0.004624    0.002276
   -7   -4   -1    1    2   -0.000513    0.000525
   -7   -4   -1    2    2    0.000901   -0.000067
   -7   -4   -1    3    2   -0.000857    0.000730
   -7   -4   -1    4    2    0.000151   -0.000262
   -7   -4   -1    5    2   -0.000832    0.000185
   -7   -4   -1    6    2   -0.000593    0.000209
   -7   -4   -1    7    2    0.000132    0.000143
   -7   -4   -1    8    2    0.001635   -0.000931
   -7   -4   -1    1    3    0.000832   -0.000266
   -7   -4   -1    2    3   -0.000399    0.000056
   -7   -4   -1    3    3    0.000291   -0.000475
   -7   -4   -1    4    3   -0.000047    0.000422
   -7   -4   -1    5    3   -0.000376   -0.000358
   -7   -4   -1    6    3   -0.000294   -0.000554
   -7   -4   -1    7    3   -0.000367   -0.000080
   -7   -4   -1    8    3   -0.000467   -0.000211
   -7   -4   -1    1    4    0.000630    0.000363
   -7   -4   -1    2    4    0.000181    0.000072
   -7   -4   -1    3    4   -0.000223    0.000146
   -7   -4   -1    4    4   -0.000361   -0.000168
   -7   -4   -1    5    4    0.000410    0.000294
   -7   -4   -1    6    4    0.000182    0.000073
   -7   -4   -1    7    4    0.000163    0.000019
   -7   -4   -1    8    4    0.002775    0.000743
   -7   -4   -1    1    5   -0.001372   -0.000083
   -7   -4   -1    2    5    0.000668   -0.000389
   -7   -4   -1    3    5   -0.000502    0.000514
   -7   -4   -1    4    5    0.001088    0.000190
   -7   -4   -1    5    5   -0.000568    0.000038
   -7   -4   -1    6    5   -0.001286   -0.000153
   -7   -4   -1    7    5   -0.000459    0.000058
   -7   -4   -1    8    5   -0.000587   -0.001321
   -7   -4   -1    1    6   -0.001893   -0.000025
   -7   -4   -1    2    6    0.000068    0.000178
   -7   -4   -1    3    6    0.000318   -0.000389
   -7   -4   -1    4    6    0.001244    0.000006
   -7   -4   -1    5    6   -0.000259   -0.000600
   -7   -4   -1    6    6   -0.001183    0.000060
   -7   -4   -1    7    6   -0.000379    0.000517
   -7   -4   -1    8    6   -0.000351   -0.002487
   -7   -4   -1    1    7   -0.000212   -0.000065
   -7   -4   -1    2    7   -0.000107    0.000260
   -7   -4   -1    3    7    0.000471    0.000021
   -7   -4   -1    4    7    0.000540    0.000150
   -7   -4   -1    5    7    0.000423   -0.000173
   -7   -4   -1    6    7   -0.001020   -0.000120
   -7   -4   -1    7    7   -0.000309    0.000212
   -7   -4   -1    8    7    0.000755   -0.000799
   -7   -4   -1    1    8   -0.003080    0.000995
   -7   -4   -1    2    8    0.001836   -0.002454
   -7   -4   -1    3    8   -0.001405    0.001001
   -7   -4   -1    4    8    0.000095    0.000206
   -7   -4   -1    5    8    0.000620   -0.002230
   -7   -4   -1    6    8    0.001685   -0.000915
   -7   -4   -1    7    8    0.000096   -0.000209
   -7   -4   -1    8    8    0.000126   -0.000013
   -7   -4    0    1    1    0.000479    0.000557
   -7   -4    0    2    1   -0.006864    0.000723
   -7   -4    0    3    1    0.001201    0.001612
   -7   -4    0    4    1    0.000888   -0.000001
   -7   -4    0    5    1   -0.007182   -0.001127
   -7   -4    0    6    1   -0.001792    0.005706
   -7   -4    0    7    1   -0.001314    0.003899
   -7   -4    0    8    1   -0.001339    0.003149
   -7   -4    0    1    2    0.002493   -0.005321
   -7   -4    0    2    2   -0.002433    0.002542
   -7   -4    0    3    2   -0.000431   -0.006475
   -7   -4    0    4    2    0.005415   -0.001974
   -7   -4    0    5    2    0.001039    0.002507
   -7   -4    0    6    2   -0.002666    0.003833
   -7   -4    0    7    2    0.003926    0.008141
   -7   -4    0    8    2    0.000761    0.001595
   -7   -4    0    1    3    0.002591    0.001620
   -7   -4    0    2    3   -0.004510   -0.001230
   -7   -4    0    3    3    0.000470    0.001888
   -7   -4    0    4    3   -0.000866    0.001876
   -7   -4    0    5    3   -0.001526   -0.000825
   -7   -4    0    6    3   -0.002664    0.000759
   -7   -4    0    7    3   -0.003146    0.001491
   -7   -4    0    8    3   -0.000769    0.001830
   -7   -4    0    1    4    0.001693    0.000522
   -7   -4    0    2    4    0.001416    0.006432
   -7   -4    0    3    4    0.002264   -0.000932
   -7   -4    0    4    4   -0.000118   -0.000090
   -7   -4    0    5    4   -0.002462    0.006683
   -7   -4    0    6    4    0.001119    0.000124
   -7   -4    0    7    4    0.001568   -0.000332
   -7   -4    0    8    4    0.001142    0.001345
   -7   -4    0    1    5   -0.000605   -0.006045
   -7   -4    0    2    5   -0.000169    0.000958
   -7   -4    0    3    5   -0.000147   -0.004218
   -7   -4    0    4    5    0.006824   -0.003889
   -7   -4    0    5    5    0.000235   -0.000734
   -7   -4    0    6    5   -0.001935    0.004504
   -7   -4    0    7    5    0.003424    0.006060
   -7   -4    0    8    5    0.001703   -0.000782
   -7   -4    0    1    6    0.000907   -0.001819
   -7   -4    0    2    6    0.000148   -0.006031
   -7   -4    0    3    6   -0.000874   -0.000350
   -7   -4    0    4    6    0.000009    0.002240
   -7   -4    0    5    6    0.004501   -0.004126
   -7   -4    0    6    6   -0.001650   -0.003052
   -7   -4    0    7    6   -0.003572   -0.000564
   -7   -4    0    8    6    0.002446   -0.001583
   -7   -4    0    1    7    0.000539   -0.000990
   -7   -4    0    2    7    0.002528    0.001932
   -7   -4    0    3    7    0.001423   -0.001759
   -7   -4    0    4    7    0.000589    0.000377
   -7   -4    0    5    7    0.003308    0.004087
   -7   -4    0    6    7    0.001505   -0.000965
   -7   -4    0    7    7   -0.000242   -0.000188
   -7   -4    0    8    7    0.002511   -0.000313
   -7   -4    0    1    8   -0.002171    0.002092
   -7   -4    0    2    8   -0.000288    0.001637
   -7   -4    0    3    8   -0.000107   -0.000517
   -7   -4    0    4    8    0.002055   -0.000627
   -7   -4    0    5    8    0.000023    0.004381
   -7   -4    0    6    8   -0.001718    0.002105
   -7   -4    0    7    8    0.000486    0.002762
   -7   -4    0    8    8    0.001642    0.001459
   -7   -4    1    1    1   -0.000600    0.000229
   -7   -4    1    2    1    0.001090   -0.000176
   -7   -4    1    3    1   -0.000059   -0.000156
   -7   -4    1    4    1    0.000194    0.000163
   -7   -4    1    5    1    0.001013    0.000019
   -7   -4    1    6    1   -0.000266   -0.000556
   -7   -4    1    7    1   -0.001379    0.000541
   -7   -4    1    8    1    0.002007   -0.001887
   -7   -4    1    1    2   -0.000206   -0.000845
   -7   -4    1    2    2    0.000075    0.000309
   -7   -4    1    3    2   -0.000327    0.000074
   -7   -4    1    4    2   -0.000100    0.000085
   -7   -4    1    5    2   -0.000877   -0.000003
   -7   -4    1    6    2    0.000726    0.000153
   -7   -4    1    7    2    0.000385   -0.000173
   -7   -4    1    8    2   -0.001847    0.000093
   -7   -4    1    1    3    0.000776   -0.000156
   -7   -4    1    2    3    0.000463   -0.000058
   -7   -4    1    3    3    0.000408   -0.000319
   -7   -4    1    4    3   -0.000113    0.000198
   -7   -4    1    5    3    0.000070   -0.000562
   -7   -4    1    6    3   -0.000093   -0.000532
   -7   -4    1    7    3   -0.000530   -0.000088
   -7   -4    1    8    3   -0.000558   -0.001017
   -7   -4    1    1    4    0.001542   -0.000186
   -7   -4    1    2    4   -0.000923    0.000168
   -7   -4    1    3    4    0.000650   -0.000254
   -7   -4    1    4    4   -0.000452   -0.000087
   -7   -4    1    5    4    0.000082    0.000039
   -7   -4    1    6    4    0.000244    0.000332
   -7   -4    1    7    4    0.000500    0.000068
   -7   -4    1    8    4   -0.001729    0.000022
   -7   -4    1    1    5   -0.001051   -0.000456
   -7   -4    1    2    5    0.000901   -0.000669
   -7   -4    1    3    5   -0.000939   -0.000206
   -7   -4    1    4    5    0.000223    0.000439
   -7   -4    1    5    5    0.000058   -0.000198
   -7   -4    1    6    5    0.000232   -0.000595
   -7   -4    1    7    5    0.000100   -0.000297
   -7   -4    1    8    5   -0.000196    0.000784
   -7   -4    1    1    6   -0.001977   -0.000244
   -7   -4    1    2    6    0.001055    0.000022
   -7   -4    1    3    6   -0.000623    0.000353
   -7   -4    1    4    6    0.000478    0.000386
   -7   -4    1    5    6   -0.000199   -0.000565
   -7   -4    1    6    6    0.000563   -0.000484
   -7   -4    1    7    6    0.000306   -0.000341
   -7   -4    1    8    6    0.000178    0.000698
   -7   -4    1    1    7   -0.000901   -0.000588
   -7   -4    1    2    7    0.000310    0.000073
   -7   -4    1    3    7   -0.000401    0.000064
   -7   -4    1    4    7    0.000251    0.000246
   -7   -4    1    5    7   -0.000031   -0.000271
   -7   -4    1    6    7    0.000182    0.000045
   -7   -4    1    7    7    0.000207    0.000034
   -7   -4    1    8    7    0.000504    0.000764
   -7   -4    1    1    8    0.004590   -0.002232
   -7   -4    1    2    8   -0.001862    0.001987
   -7   -4    1    3    8    0.000591   -0.000933
   -7   -4    1    4    8   -0.000516    0.001129
   -7   -4    1    5    8    0.001944   -0.001563
   -7   -4    1    6    8    0.000693   -0.001617
   -7   -4    1    7    8    0.001112   -0.000405
   -7   -4    1    8    8   -0.000365   -0.000319
   -7   -3   -1    1    1    0.001252   -0.000219
   -7   -3   -1    2    1   -0.000487    0.000471
   -7   -3   -1    3    1    0.001241   -0.000199
   -7   -3   -1    4    1    0.000958    0.000169
   -7   -3   -1    5    1    0.000272   -0.000087
   -7   -3   -1    6    1   -0.002192   -0.000225
   -7   -3   -1    7    1   -0.000407    0.000605
   -7   -3   -1    8    1    0.000535    0.000965
   -7   -3   -1    1    2   -0.000792    0.000467
   -7   -3   -1    2    2    0.000247   -0.000609
   -7   -3   -1    3    2   -0.000488    0.000614
   -7   -3   -1    4    2    0.000108   -0.000511
   -7   -3   -1    5    2   -0.000827    0.001304
   -7   -3   -1    6    2   -0.000059    0.000890
   -7   -3   -1    7    2    0.000260   -0.000127
   -7   -3   -1    8    2    0.000214   -0.000528
   -7   -3   -1    1    3    0.000508    0.000033
   -7   -3   -1    2    3   -0.000441    0.000123
   -7   -3   -1    3    3    0.000094    0.000005
   -7   -3   -1    4    3    0.000307    0.000204
   -7   -3   -1    5    3    0.000294   -0.000097
   -7   -3   -1    6    3   -0.000600   -0.000637
   -7   -3   -1    7    3    0.000070    0.000156
   -7   -3   -1    8    3    0.001026    0.001124
   -7   -3   -1    1    4    0.000037    0.000020
   -7   -3   -1    2    4   -0.000099   -0.000254
   -7   -3   -1    3    4   -0.000224   -0.000179
   -7   -3   -1    4    4   -0.000301   -0.000079
   -7   -3   -1    5    4    0.000345    0.000111
   -7   -3   -1    6    4    0.000827    0.000004
   -7   -3   -1    7    4    0.000440   -0.000158
   -7   -3   -1    8    4    0.001240   -0.000580
   -7   -3   -1    1    5   -0.000797   -0.000200
   -7   -3   -1    2    5    0.000168   -0.000320
   -7   -3   -1    3    5   -0.000240    0.000485
   -7   -3   -1    4    5    0.000437   -0.000350
   -7   -3   -1    5    5   -0.000291    0.000415
   -7   -3   -1    6    5   -0.000738    0.000483
   -7   -3   -1    7    5   -0.000331    0.000127
   -7   -3   -1    8    5   -0.002037   -0.000408
   -7   -3   -1    1    6   -0.001010    0.000062
   -7   -3   -1    2    6    0.000845    0.000151
   -7   -3   -1    3    6   -0.000243    0.000365
   -7   -3   -1    4    6    0.000477   -0.000093
   -7   -3   -1    5    6   -0.000985    0.000077
   -7   -3   -1    6    6   -0.001031    0.000255
   -7   -3   -1    7    6   -0.000769    0.000433
   -7   -3   -1    8    6   -0.001772   -0.001050
   -7   -3   -1    1    7   -0.000188   -0.000591
   -7   -3   -1    2    7    0.000003    0.000160
   -7   -3   -1    3    7   -0.000071   -0.000050
   -7   -3   -1    4    7   -0.000010    0.000093
   -7   -3   -1    5    7   -0.000487   -0.000130
   -7   -3   -1    6    7   -0.000111    0.000200
   -7   -3   -1    7    7   -0.000152    0.000075
   -7   -3   -1    8    7   -0.001911   -0.001497
   -7   -3   -1    1    8   -0.001301    0.000744
   -7   -3   -1    2    8   -0.000690   -0.001151
   -7   -3   -1    3    8   -0.000109    0.000326
   -7   -3   -1    4    8   -0.000400   -0.000230
   -7   -3   -1    5    8   -0.000735   -0.001594
   -7   -3   -1    6    8    0.001843    0.001016
   -7   -3   -1    7    8   -0.000143    0.000844
   -7   -3   -1    8    8   -0.000072    0.000023
   -7   -3    0    1    1    0.000890    0.000255
   -7   -3    0    2    1   -0.001183    0.006067
   -7   -3    0    3    1    0.002431   -0.001782
   -7   -3    0    4    1    0.000634   -0.002013
   -7   -3    0    5    1   -0.003532    0.007075
   -7   -3    0    6    1    0.001551    0.003121
   -7   -3    0    7    1    0.001551    0.001517
   -7   -3    0    8    1    0.000761    0.000376
   -7   -3    0    1    2    0.000285   -0.003663
   -7   -3    0    2    2    0.000063    0.002687
   -7   -3    0    3    2    0.000025   -0.004198
   -7   -3    0    4    2   -0.001216   -0.004929
   -7   -3    0    5    2    0.002472   -0.001258
   -7   -3    0    6    2    0.002064    0.003501
   -7   -3    0    7    2    0.006663    0.001259
   -7   -3    0    8    2    0.002322   -0.000508
   -7   -3    0    1    3    0.002713    0.001898
   -7   -3    0    2    3   -0.004949    0.004893
   -7   -3    0    3    3    0.001426    0.000362
   -7   -3    0    4    3    0.001409    0.000412
   -7   -3    0    5    3   -0.002781    0.004360
   -7   -3    0    6    3   -0.002819   -0.000425
   -7   -3    0    7    3   -0.000001    0.001426
   -7   -3    0    8    3   -0.000099    0.000236
   -7   -3    0    1    4    0.001768   -0.000661
   -7   -3    0    2    4    0.003888    0.000641
   -7   -3    0    3    4   -0.000720   -0.002251
   -7   -3    0    4    4   -0.000514    0.000355
   -7   -3    0    5    4    0.002889    0.003370
   -7   -3    0    6    4    0.000066   -0.001512
   -7   -3    0    7    4    0.000331   -0.001010
   -7   -3    0    8    4    0.000680   -0.001561
   -7   -3    0    1    5   -0.004215   -0.000135
   -7   -3    0    2    5    0.000424   -0.001166
   -7   -3    0    3    5    0.002410    0.001010
   -7   -3    0    4    5    0.000679   -0.006467
   -7   -3    0    5    5   -0.002536   -0.001488
   -7   -3    0    6    5    0.001512    0.002531
   -7   -3    0    7    5    0.002566   -0.000280
   -7   -3    0    8    5   -0.000334   -0.000284
   -7   -3    0    1    6   -0.001473   -0.000622
   -7   -3    0    2    6   -0.003865   -0.002624
   -7   -3    0    3    6   -0.000779    0.001379
   -7   -3    0    4    6    0.001756    0.000896
   -7   -3    0    5    6   -0.000775   -0.005437
   -7   -3    0    6    6   -0.001397   -0.000478
   -7   -3    0    7    6    0.000105    0.001195
   -7   -3    0    8    6    0.001593    0.001266
   -7   -3    0    1    7   -0.000987   -0.001473
   -7   -3    0    2    7    0.004674   -0.001375
   -7   -3    0    3    7   -0.000563   -0.001045
   -7   -3    0    4    7    0.000641    0.000037
   -7   -3    0    5    7    0.005352   -0.003633
   -7   -3    0    6    7    0.000180   -0.000894
   -7   -3    0    7    7    0.000079    0.000068
   -7   -3    0    8    7    0.000659   -0.001684
   -7   -3    0    1    8    0.000845    0.000640
   -7   -3    0    2    8    0.000556    0.001522
   -7   -3    0    3    8    0.000041   -0.001617
   -7   -3    0    4    8    0.000302   -0.001845
   -7   -3    0    5    8    0.002109    0.003122
   -7   -3    0    6    8   -0.001327    0.000268
   -7   -3    0    7    8    0.000246    0.000992
   -7   -3    0    8    8    0.001214   -0.000844
   -7   -3    1    1    1   -0.000868   -0.000247
   -7   -3    1    2    1    0.000237   -0.000952
   -7   -3    1    3    1    0.000084    0.000210
   -7   -3    1    4    1    0.000665   -0.000106
   -7   -3    1    5    1    0.000040   -0.001154
   -7   -3    1    6    1   -0.000512    0.000557
   -7   -3    1    7    1   -0.000403    0.000342
   -7   -3    1    8    1   -0.000278   -0.000143
   -7   -3    1    1    2   -0.000077    0.000320
   -7   -3    1    2    2    0.000344   -0.000151
   -7   -3    1    3    2   -0.000013    0.000301
   -7   -3    1    4    2    0.000226   -0.000056
   -7   -3    1    5    2   -0.001034    0.001134
   -7   -3    1    6    2   -0.000403   -0.000651
   -7   -3    1    7    2   -0.000207   -0.000591
   -7   -3    1    8    2   -0.001498    0.000907
   -7   -3    1    1    3    0.000760    0.000171
   -7   -3    1    2    3    0.000069   -0.000792
   -7   -3    1    3    3    0.000529    0.000133
   -7   -3    1    4    3   -0.000277   -0.000228
   -7   -3    1    5    3   -0.000070   -0.000493
   -7   -3    1    6    3    0.000576    0.000651
   -7   -3    1    7    3    0.000360    0.000232
   -7   -3    1    8    3   -0.002504   -0.001533
   -7   -3    1    1    4    0.000134   -0.000083
   -7   -3    1    2    4   -0.000127    0.000390
   -7   -3    1    3    4    0.000053   -0.000171
   -7   -3    1    4    4   -0.000217    0.000066
   -7   -3    1    5    4    0.000175    0.000133
   -7   -3    1    6    4    0.000363   -0.000163
   -7   -3    1    7    4    0.000565   -0.000140
   -7   -3    1    8    4   -0.000644    0.000018
   -7   -3    1    1    5   -0.001216    0.000464
   -7   -3    1    2    5    0.000002   -0.000717
   -7   -3    1    3    5   -0.000941    0.000398
   -7   -3    1    4    5    0.000364    0.000054
   -7   -3    1    5    5   -0.000097   -0.000068
   -7   -3    1    6    5    0.000045   -0.000025
   -7   -3    1    7    5   -0.000089   -0.000330
   -7   -3    1    8    5    0.000458    0.001398
   -7   -3    1    1    6   -0.000278   -0.000141
   -7   -3    1    2    6    0.000301    0.000068
   -7   -3    1    3    6   -0.000123    0.000020
   -7   -3    1    4    6   -0.000028   -0.000018
   -7   -3    1    5    6   -0.000422    0.000109
   -7   -3    1    6    6    0.000455    0.000179
   -7   -3    1    7    6   -0.000610    0.000037
   -7   -3    1    8    6    0.000211    0.000547
   -7   -3    1    1    7   -0.001699   -0.000050
   -7   -3    1    2    7    0.000191    0.000168
   -7   -3    1    3    7   -0.000601    0.000085
   -7   -3    1    4    7    0.000445    0.000001
   -7   -3    1    5    7   -0.000304    0.000219
   -7   -3    1    6    7    0.000026    0.000011
   -7   -3    1    7    7   -0.000259   -0.000110
   -7   -3    1    8    7    0.001613    0.001022
   -7   -3    1    1    8    0.000916   -0.002017
   -7   -3    1    2    8   -0.000693    0.001700
   -7   -3    1    3    8   -0.001052    0.000688
   -7   -3    1    4    8   -0.001202    0.001153
   -7   -3    1    5    8    0.002134   -0.001316
   -7   -3    1    6    8    0.001238   -0.002138
   -7   -3    1    7    8    0.001747   -0.001147
   -7   -3    1    8    8    0.000031    0.000089
   -7   -2   -1    1    1   -0.000636   -0.001485
   -7   -2   -1    2    1   -0.000419   -0.000111
   -7   -2   -1    3    1   -0.000523   -0.000144
   -7   -2   -1    4    1    0.000063    0.000020
   -7   -2   -1    5    1   -0.000720    0.000033
   -7   -2   -1    6    1   -0.000192    0.000473
   -7   -2   -1    7    1    0.000459   -0.000034
   -7   -2   -1    8    1   -0.002716   -0.001357
   -7   -2   -1    1    2   -0.000234    0.000845
   -7   -2   -1    2    2   -0.000008    0.000024
   -7   -2   -1    3    2    0.000270    0.000371
   -7   -2   -1    4    2   -0.000041   -0.000149
   -7   -2   -1    5    2    0.001007    0.000456
   -7   -2   -1    6    2    0.000406   -0.000134
   -7   -2   -1    7    2   -0.000067   -0.000459
   -7   -2   -1    8    2    0.001282    0.001565
   -7   -2   -1    1    3   -0.000652   -0.000241
   -7   -2   -1    2    3    0.000206   -0.000175
   -7   -2   -1    3    3   -0.000664    0.000249
   -7   -2   -1    4    3    0.000113   -0.000134
   -7   -2   -1    5    3   -0.000332    0.000141
   -7   -2   -1    6    3   -0.000229    0.000132
   -7   -2   -1    7    3    0.000425    0.000045
   -7   -2   -1    8    3    0.000593   -0.000193
   -7   -2   -1    1    4    0.000462   -0.000007
   -7   -2   -1    2    4   -0.000188    0.000113
   -7   -2   -1    3    4    0.000193   -0.000090
   -7   -2   -1    4    4   -0.000396    0.000104
   -7   -2   -1    5    4    0.000290   -0.000145
   -7   -2   -1    6    4    0.001293   -0.000387
   -7   -2   -1    7    4    0.000320   -0.000152
   -7   -2   -1    8    4   -0.000340   -0.000221
   -7   -2   -1    1    5   -0.000449    0.000519
   -7   -2   -1    2    5   -0.000146   -0.000154
   -7   -2   -1    3    5   -0.000201    0.000255
   -7   -2   -1    4    5   -0.000021   -0.000258
   -7   -2   -1    5    5    0.000436    0.000123
   -7   -2   -1    6    5   -0.000899   -0.000043
   -7   -2   -1    7    5   -0.000283   -0.000258
   -7   -2   -1    8    5   -0.000917    0.000833
   -7   -2   -1    1    6   -0.000781    0.000674
   -7   -2   -1    2    6    0.001035   -0.000482
   -7   -2   -1    3    6   -0.000493    0.000503
   -7   -2   -1    4    6    0.000792   -0.000629
   -7   -2   -1    5    6   -0.000714    0.000568
   -7   -2   -1    6    6   -0.003011    0.001448
   -7   -2   -1    7    6   -0.001004    0.000515
   -7   -2   -1    8    6    0.000474   -0.000705
   -7   -2   -1    1    7    0.000162   -0.000197
   -7   -2   -1    2    7    0.000392   -0.000054
   -7   -2   -1    3    7   -0.000121   -0.000215
   -7   -2   -1    4    7    0.000138   -0.000058
   -7   -2   -1    5    7   -0.000833    0.000070
   -7   -2   -1    6    7   -0.000867    0.000136
   -7   -2   -1    7    7   -0.000367   -0.000043
   -7   -2   -1    8    7   -0.001383   -0.000501
   -7   -2   -1    1    8    0.000247    0.000104
   -7   -2   -1    2    8   -0.001236    0.001759
   -7   -2   -1    3    8    0.000931   -0.000551
   -7   -2   -1    4    8   -0.000024   -0.000441
   -7   -2   -1    5    8   -0.000670    0.000935
   -7   -2   -1    6    8    0.001203    0.000359
   -7   -2   -1    7    8    0.000118    0.000602
   -7   -2   -1    8    8    0.001608   -0.000226
   -7   -2    0    1    1    0.000240   -0.000640
   -7   -2    0    2    1    0.004016    0.000261
   -7   -2    0    3    1    0.000511   -0.001724
   -7   -2    0    4    1    0.000133   -0.000971
   -7   -2    0    5    1    0.001629    0.002443
   -7   -2    0    6    1    0.000444   -0.000097
   -7   -2    0    7    1    0.000815   -0.001068
   -7   -2    0    8    1    0.001069   -0.001118
   -7   -2    0    1    2   -0.000159    0.000208
   -7   -2    0    2    2   -0.001901   -0.000082
   -7   -2    0    3    2   -0.000737   -0.000876
   -7   -2    0    4    2   -0.002681   -0.000741
   -7   -2    0    5    2   -0.004321    0.001210
   -7   -2    0    6    2   -0.000054   -0.000648
   -7   -2    0    7    2    0.001619   -0.004145
   -7   -2    0    8    2   -0.000795   -0.000866
   -7   -2    0    1    3    0.001425    0.000261
   -7   -2    0    2    3    0.001285    0.004016
   -7   -2    0    3    3    0.000708   -0.001506
   -7   -2    0    4    3    0.000257    0.000154
   -7   -2    0    5    3    0.002436    0.001953
   -7   -2    0    6    3    0.001337   -0.001101
   -7   -2    0    7    3    0.002717   -0.000387
   -7   -2    0    8    3    0.002567    0.000533
   -7   -2    0    1    4    0.001088   -0.000279
   -7   -2    0    2    4    0.001059   -0.001984
   -7   -2    0    3    4   -0.000707   -0.001158
   -7   -2    0    4    4   -0.000125    0.000202
   -7   -2    0    5    4    0.003678    0.000235
   -7   -2    0    6    4   -0.000667   -0.000905
   -7   -2    0    7    4    0.000025   -0.000184
   -7   -2    0    8    4   -0.000552   -0.001215
   -7   -2    0    1    5   -0.001539    0.001670
   -7   -2    0    2    5   -0.000903   -0.001805
   -7   -2    0    3    5    0.002513    0.001307
   -7   -2    0    4    5   -0.001755   -0.001432
   -7   -2    0    5    5   -0.006899    0.001493
   -7   -2    0    6    5   -0.000183    0.000888
   -7   -2    0    7    5   -0.001146   -0.001113
   -7   -2    0    8    5   -0.001672    0.002219
   -7   -2    0    1    6   -0.001855    0.000046
   -7   -2    0    2    6   -0.001988    0.001588
   -7   -2    0    3    6   -0.001641    0.001442
   -7   -2    0    4    6   -0.000024    0.000089
   -7   -2    0    5    6   -0.001729   -0.002011
   -7   -2    0    6    6    0.001718   -0.000034
   -7   -2    0    7    6    0.001890    0.000460
   -7   -2    0    8    6    0.002750    0.002404
   -7   -2    0    1    7   -0.001506   -0.000389
   -7   -2    0    2    7    0.002187   -0.002737
   -7   -2    0    3    7    0.000297    0.000548
   -7   -2    0    4    7    0.000510   -0.000154
   -7   -2    0    5    7    0.000024   -0.004792
   -7   -2    0    6    7   -0.001228    0.000020
   -7   -2    0    7    7   -0.001066    0.000217
   -7   -2    0    8    7   -0.000620    0.000077
   -7   -2    0    1    8    0.002357   -0.000813
   -7   -2    0    2    8    0.001119   -0.002389
   -7   -2    0    3    8    0.000363   -0.000984
   -7   -2    0    4    8   -0.000388   -0.000047
   -7   -2    0    5    8    0.000384   -0.003204
   -7   -2    0    6    8   -0.000860   -0.001250
   -7   -2    0    7    8    0.000319   -0.000798
   -7   -2    0    8    8    0.000060   -0.000420
   -7   -2    1    1    1   -0.003836    0.001519
   -7   -2    1    2    1   -0.000008   -0.000149
   -7   -2    1    3    1   -0.000797    0.000601
   -7   -2    1    4    1    0.000885   -0.000406
   -7   -2    1    5    1   -0.000723   -0.000513
   -7   -2    1    6    1    0.000553    0.000249
   -7   -2    1    7    1    0.000114    0.000043
   -7   -2    1    8    1    0.001627    0.000781
   -7   -2    1    1    2    0.001111    0.000400
   -7   -2    1    2    2    0.000057   -0.000141
   -7   -2    1    3    2    0.000880    0.000172
   -7   -2    1    4    2   -0.000385    0.000012
   -7   -2    1    5    2    0.001232    0.000576
   -7   -2    1    6    2    0.000690    0.000109
   -7   -2    1    7    2    0.000146   -0.000111
   -7   -2    1    8    2   -0.001031    0.000050
   -7   -2    1    1    3   -0.001167    0.000014
   -7   -2    1    2    3   -0.000221   -0.000211
   -7   -2    1    3    3   -0.000216    0.000038
   -7   -2    1    4    3    0.000160   -0.000111
   -7   -2    1    5    3   -0.000535    0.000083
   -7   -2    1    6    3    0.000168    0.000323
   -7   -2    1    7    3    0.000300    0.000163
   -7   -2    1    8    3   -0.001372   -0.000274
   -7   -2    1    1    4    0.000261   -0.000387
   -7   -2    1    2    4    0.000177    0.000146
   -7   -2    1    3    4   -0.000033   -0.000161
   -7   -2    1    4    4   -0.000100    0.000035
   -7   -2    1    5    4    0.000032    0.000252
   -7   -2    1    6    4   -0.000223    0.000189
   -7   -2    1    7    4   -0.000070    0.000059
   -7   -2    1    8    4    0.000557    0.000004
   -7   -2    1    1    5    0.000024    0.000553
   -7   -2    1    2    5   -0.000634    0.000072
   -7   -2    1    3    5   -0.000215    0.000425
   -7   -2    1    4    5   -0.000128   -0.000220
   -7   -2    1    5    5    0.000272    0.000104
   -7   -2    1    6    5    0.000338    0.000247
   -7   -2    1    7    5   -0.000244    0.000019
   -7   -2    1    8    5    0.000402    0.000637
   -7   -2    1    1    6    0.000869   -0.000311
   -7   -2    1    2    6    0.000067    0.000196
   -7   -2    1    3    6    0.000314   -0.000346
   -7   -2    1    4    6    0.000193    0.000322
   -7   -2    1    5    6   -0.000481    0.000005
   -7   -2    1    6    6   -0.000403   -0.001278
   -7   -2    1    7    6   -0.000357   -0.000430
   -7   -2    1    8    6   -0.001522    0.000352
   -7   -2    1    1    7   -0.000353    0.000084
   -7   -2    1    2    7    0.000176    0.000321
   -7   -2    1    3    7   -0.000090   -0.000205
   -7   -2    1    4    7    0.000226    0.000048
   -7   -2    1    5    7   -0.000088    0.000224
   -7   -2    1    6    7   -0.000183   -0.000511
   -7   -2    1    7    7   -0.000487   -0.000098
   -7   -2    1    8    7    0.001182    0.000195
   -7   -2    1    1    8   -0.000889   -0.000006
   -7   -2    1    2    8   -0.000226   -0.001088
   -7   -2    1    3    8   -0.001275    0.000538
   -7   -2    1    4    8   -0.000317    0.000137
   -7   -2    1    5    8   -0.001668    0.000386
   -7   -2    1    6    8   -0.001988    0.000852
   -7   -2    1    7    8   -0.000173   -0.000828
   -7   -2    1    8    8    0.001661    0.000115
   -6   -6   -1    1    1    0.001522   -0.000189
   -6   -6   -1    2    1   -0.000263    0.000576
   -6   -6   -1    3    1    0.000762   -0.000437
   -6   -6   -1    4    1   -0.001195   -0.000390
   -6   -6   -1    5    1    0.001005   -0.000323
   -6   -6   -1    6    1    0.001309   -0.000079
   -6   -6   -1    7    1   -0.000084   -0.000736
   -6   -6   -1    8    1    0.001128   -0.000306
   -6   -6   -1    1    2   -0.000201   -0.001346
   -6   -6   -1    2    2   -0.000171    0.000497
   -6   -6   -1    3    2   -0.000389   -0.000487
   -6   -6   -1    4    2    0.000312    0.000616
   -6   -6   -1    5    2    0.000186   -0.000840
   -6   -6   -1    6    2   -0.000280    0.000197
   -6   -6   -1    7    2    0.000140    0.000365
   -6   -6   -1    8    2   -0.000030   -0.000222
   -6   -6   -1    1    3    0.000910    0.000560
   -6   -6   -1    2    3   -0.000745    0.000015
   -6   -6   -1    3    3    0.000657    0.000003
   -6   -6   -1    4    3   -0.000586   -0.000411
   -6   -6   -1    5    3    0.000576    0.000058
   -6   -6   -1    6    3    0.000413    0.000094
   -6   -6   -1    7    3   -0.000006   -0.000142
   -6   -6   -1    8    3    0.000500   -0.000007
   -6   -6   -1    1    4   -0.000507   -0.000315
   -6   -6   -1    2    4    0.000272   -0.000327
   -6   -6   -1    3    4   -0.000353    0.000217
   -6   -6   -1    4    4    0.000387    0.000092
   -6   -6   -1    5    4   -0.000275   -0.000036
   -6   -6   -1    6    4   -0.000456    0.000210
   -6   -6   -1    7    4    0.000190    0.000183
   -6   -6   -1    8    4   -0.001438   -0.000612
   -6   -6   -1    1    5   -0.000332   -0.001312
   -6   -6   -1    2    5   -0.000205    0.000925
   -6   -6   -1    3    5    0.000141   -0.000909
   -6   -6   -1    4    5   -0.000263    0.000405
   -6   -6   -1    5    5   -0.000071   -0.000392
   -6   -6   -1    6    5    0.000761   -0.000157
   -6   -6   -1    7    5    0.000191   -0.000152
   -6   -6   -1    8    5    0.000039    0.000784
   -6   -6   -1    1    6    0.000090    0.001074
   -6   -6   -1    2    6   -0.001167   -0.000253
   -6   -6   -1    3    6    0.000390   -0.000092
   -6   -6   -1    4    6   -0.000625   -0.000070
   -6   -6   -1    5    6    0.000056    0.000243
   -6   -6   -1    6    6    0.000464   -0.000164
   -6   -6   -1    7    6   -0.000659    0.000044
   -6   -6   -1    8    6   -0.000130    0.001900
   -6   -6   -1    1    7    0.000095    0.000063
   -6   -6   -1    2    7   -0.000473   -0.000230
   -6   -6   -1    3    7    0.000276   -0.000116
   -6   -6   -1    4    7   -0.000224    0.000006
   -6   -6   -1    5    7   -0.000200    0.000165
   -6   -6   -1    6    7    0.000057   -0.000109
   -6   -6   -1    7    7   -0.000287   -0.000086
   -6   -6   -1    8    7   -0.001219    0.000830
   -6   -6   -1    1    8    0.000533   -0.000032
   -6   -6   -1    2    8    0.000704    0.000750
   -6   -6   -1    3    8    0.000257   -0.000923
   -6   -6   -1    4    8    0.000210    0.000341
   -6   -6   -1    5    8    0.001113    0.001166
   -6   -6   -1    6    8    0.000345   -0.000694
   -6   -6   -1    7    8    0.000691   -0.000134
   -6   -6   -1    8    8    0.001290    0.000356
   -6   -6    0    1    1   -0.006223   -0.000000
   -6   -6    0    2    1    0.005372   -0.007262
   -6   -6    0    3    1   -0.004206    0.000800
   -6   -6    0    4    1   -0.001766   -0.001182
   -6   -6    0    5    1    0.008878   -0.006729
   -6   -6    0    6    1    0.000725   -0.001097
   -6   -6    0    7    1   -0.000697   -0.002997
   -6   -6    0    8    1   -0.004035   -0.004670
   -6   -6    0    1    2    0.005372    0.007262
   -6   -6    0    2    2    0.000971    0.000000
   -6   -6    0    3    2    0.005383   -0.000118
   -6   -6    0    4    2   -0.006582    0.004857
   -6   -6    0    5    2   -0.000575    0.002573
   -6   -6    0    6    2    0.002125   -0.007045
   -6   -6    0    7    2   -0.007612   -0.001098
   -6   -6    0    8    2   -0.000064    0.003549
   -6   -6    0    1    3   -0.004206   -0.000800
   -6   -6    0    2    3    0.005383    0.000118
   -6   -6    0    3    3   -0.002547   -0.000000
   -6   -6    0    4    3   -0.001246   -0.002575
   -6   -6    0    5    3    0.003222    0.001439
   -6   -6    0    6    3    0.002417   -0.000950
   -6   -6    0    7    3   -0.000112   -0.004681
   -6   -6    0    8    3    0.000473   -0.003281
   -6   -6    0    1    4   -0.001766    0.001182
   -6   -6    0    2    4   -0.006582   -0.004857
   -6   -6    0    3    4   -0.001246    0.002575
   -6   -6    0    4    4    0.000129    0.000000
   -6   -6    0    5    4   -0.005054   -0.008314
   -6   -6    0    6    4   -0.001137    0.001164
   -6   -6    0    7    4   -0.002076    0.001001
   -6   -6    0    8    4   -0.002644    0.000929
   -6   -6    0    1    5    0.008878    0.006729
   -6   -6    0    2    5   -0.000575   -0.002573
   -6   -6    0    3    5    0.003222   -0.001439
   -6   -6    0    4    5   -0.005054    0.008314
   -6   -6    0    5    5   -0.000660    0.000000
   -6   -6    0    6    5   -0.002135   -0.007472
   -6   -6    0    7    5   -0.007634    0.000416
   -6   -6    0    8    5   -0.001157    0.001446
   -6   -6    0    1    6    0.000725    0.001097
   -6   -6    0    2    6    0.002125    0.007045
   -6   -6    0    3    6    0.002417    0.000950
   -6   -6    0    4    6   -0.001137   -0.001164
   -6   -6    0    5    6   -0.002135    0.007472
   -6   -6    0    6    6    0.002413    0.000000
   -6   -6    0    7    6    0.003122   -0.003537
   -6   -6    0    8    6    0.003303    0.000694
   -6   -6    0    1    7   -0.000697    0.002997
   -6   -6    0    2    7   -0.007612    0.001098
   -6   -6    0    3    7   -0.000112    0.004681
   -6   -6    0    4    7   -0.002076   -0.001001
   -6   -6    0    5    7   -0.007634   -0.000416
   -6   -6    0    6    7    0.003122    0.003537
   -6   -6    0    7    7    0.001885   -0.000000
   -6   -6    0    8    7   -0.000347    0.003091
   -6   -6    0    1    8   -0.004035    0.004670
   -6   -6    0    2    8   -0.000064   -0.003549
   -6   -6    0    3    8    0.000473    0.003281
   -6   -6    0    4    8   -0.002644   -0.000929
   -6   -6    0    5    8   -0.001157   -0.001446
   -6   -6    0    6    8    0.003303   -0.000694
   -6   -6    0    7    8   -0.000347   -0.003091
   -6   -6    0    8    8   -0.005432    0.000000
   -6   -6    1    1    1    0.001522    0.000189
   -6   -6    1    2    1   -0.000201    0.001346
   -6   -6    1    3    1    0.000910   -0.000560
   -6   -6    1    4    1   -0.000507    0.000315
   -6   -6    1    5    1   -0.000332    0.001312
   -6   -6    1    6    1    0.000090   -0.001074
   -6   -6    1    7    1    0.000095   -0.000063
   -6   -6    1    8    1    0.000533    0.000032
   -6   -6    1    1    2   -0.000263   -0.000576
   -6   -6    1    2    2   -0.000171   -0.000497
   -6   -6    1    3    2   -0.000745   -0.000015
   -6   -6    1    4    2    0.000272    0.000327
   -6   -6    1    5    2   -0.000205   -0.000925
   -6   -6    1    6    2   -0.001167    0.000253
   -6   -6    1    7    2   -0.000473    0.000230
   -6   -6    1    8    2    0.000704   -0.000750
   -6   -6    1    1    3    0.000762    0.000437
   -6   -6    1    2    3   -0.000389    0.000487
   -6   -6    1    3    3    0.000657   -0.000003
   -6   -6    1    4    3   -0.000353   -0.000217
   -6   -6    1    5    3    0.000141    0.000909
   -6   -6    1    6    3    0.000390    0.000092
   -6   -6    1    7    3    0.000276    0.000116
   -6   -6    1    8    3    0.000257    0.000923
   -6   -6    1    1    4   -0.001195    0.000390
   -6   -6    1    2    4    0.000312   -0.000616
   -6   -6    1    3    4   -0.000586    0.000411
   -6   -6    1    4    4    0.000387   -0.000092
   -6   -6    1    5    4   -0.000263   -0.000405
   -6   -6    1    6    4   -0.000625    0.000070
   -6   -6    1    7    4   -0.000224   -0.000006
   -6   -6    1    8    4    0.000210   -0.000341
   -6   -6    1    1    5    0.001005    0.000323
   -6   -6    1    2    5    0.000186    0.000840
   -6   -6    1    3    5    0.000576   -0.000058
   -6   -6    1    4    5   -0.000275    0.000036
   -6   -6    1    5    5   -0.000071    0.000392
   -6   -6    1    6    5    0.000056   -0.000243
   -6   -6    1    7    5   -0.000200   -0.000165
   -6   -6    1    8    5    0.001113   -0.001166
   -6   -6    1    1    6    0.001309    0.000079
   -6   -6    1    2    6   -0.000280   -0.000197
   -6   -6    1    3    6    0.000413   -0.000094
   -6   -6    1    4    6   -0.000456   -0.000210
   -6   -6    1    5    6    0.000761    0.000157
   -6   -6    1    6    6    0.000464    0.000164
   -6   -6    1    7    6    0.000057    0.000109
   -6   -6    1    8    6    0.000345    0.000694
   -6   -6    1    1    7   -0.000084    0.000736
   -6   -6    1    2    7    0.000140   -0.000365
   -6   -6    1    3    7   -0.000006    0.000142
   -6   -6    1    4    7    0.000190   -0.000183
   -6   -6    1    5    7    0.000191    0.000152
   -6   -6    1    6    7   -0.000659   -0.000044
   -6   -6    1    7    7   -0.000287    0.000086
   -6   -6    1    8    7    0.000691    0.000134
   -6   -6    1    1    8    0.001128    0.000306
   -6   -6    1    2    8   -0.000030    0.000222
   -6   -6    1    3    8    0.000500    0.000007
   -6   -6    1    4    8   -0.001438    0.000612
   -6   -6    1    5    8    0.000039   -0.000784
   -6   -6    1    6    8   -0.000130   -0.001900
   -6   -6    1    7    8   -0.001219   -0.000830
   -6   -6    1    8    8    0.001290   -0.000356
   -6   -5   -1    1    1    0.001012   -0.000856
   -6   -5   -1    2    1    0.000366    0.000383
   -6   -5   -1    3    1    0.000426   -0.000382
   -6   -5   -1    4    1   -0.000569    0.000539
   -6   -5   -1    5    1    0.000370   -0.000035
   -6   -5   -1    6    1   -0.000015   -0.000800
   -6   -5   -1    7    1   -0.000458   -0.000528
   -6   -5   -1    8    1   -0.001565   -0.000622
   -6   -5   -1    1    2   -0.001480   -0.001065
   -6   -5   -1    2    2    0.000595    0.000592
   -6   -5   -1    3    2   -0.001200   -0.000065
   -6   -5   -1    4    2    0.000517    0.000321
   -6   -5   -1    5    2   -0.000873   -0.000982
   -6   -5   -1    6    2    0.000343   -0.000262
   -6   -5   -1    7    2    0.000426   -0.000153
   -6   -5   -1    8    2    0.000572   -0.000058
   -6   -5   -1    1    3    0.000633    0.000210
   -6   -5   -1    2    3    0.000177    0.000254
   -6   -5   -1    3    3    0.000034   -0.000066
   -6   -5   -1    4    3   -0.000352    0.000183
   -6   -5   -1    5    3    0.000283   -0.000233
   -6   -5   -1    6    3   -0.000133   -0.000022
   -6   -5   -1    7    3   -0.000079    0.000001
   -6   -5   -1    8    3    0.000068    0.000045
   -6   -5   -1    1    4   -0.000922    0.000178
   -6   -5   -1    2    4   -0.000355   -0.000020
   -6   -5   -1    3    4   -0.000521    0.000338
   -6   -5   -1    4    4    0.000106   -0.000042
   -6   -5   -1    5    4   -0.000232   -0.000013
   -6   -5   -1    6    4    0.000467   -0.000013
   -6   -5   -1    7    4    0.000173   -0.000067
   -6   -5   -1    8    4   -0.000160    0.001660
   -6   -5   -1    1    5   -0.000509   -0.000504
   -6   -5   -1    2    5    0.001334    0.000351
   -6   -5   -1    3    5   -0.000359   -0.000416
   -6   -5   -1    4    5    0.000256    0.000586
   -6   -5   -1    5    5   -0.000532   -0.000165
   -6   -5   -1    6    5   -0.000289   -0.000880
   -6   -5   -1    7    5   -0.000045   -0.000419
   -6   -5   -1    8    5   -0.000882    0.000279
   -6   -5   -1    1    6    0.000960    0.000739
   -6   -5   -1    2    6    0.000096    0.000055
   -6   -5   -1    3    6    0.000928   -0.000424
   -6   -5   -1    4    6    0.000191    0.000013
   -6   -5   -1    5    6   -0.000012    0.000423
   -6   -5   -1    6    6   -0.001273    0.000546
   -6   -5   -1    7    6   -0.000490    0.000666
   -6   -5   -1    8    6    0.000130    0.000069
   -6   -5   -1    1    7   -0.000193    0.000084
   -6   -5   -1    2    7    0.000007   -0.000105
   -6   -5   -1    3    7    0.000456   -0.000304
   -6   -5   -1    4    7    0.000250    0.000112
   -6   -5   -1    5    7   -0.000562    0.000448
   -6   -5   -1    6    7   -0.000225   -0.000160
   -6   -5   -1    7    7   -0.000148    0.000069
   -6   -5   -1    8    7   -0.000737    0.001172
   -6   -5   -1    1    8    0.000754   -0.000653
   -6   -5   -1    2    8    0.000519    0.000894
   -6   -5   -1    3    8   -0.000849   -0.001005
   -6   -5   -1    4    8   -0.000699    0.000634
   -6   -5   -1    5    8    0.002223   -0.001422
   -6   -5   -1    6    8    0.000933   -0.001856
   -6   -5   -1    7    8   -0.000050   -0.000235
   -6   -5   -1    8    8    0.001215   -0.000643
   -6   -5    0    1    1   -0.003608    0.004463
   -6   -5    0    2    1   -0.006116   -0.008028
   -6   -5    0    3    1   -0.004658    0.003606
   -6   -5    0    4    1   -0.004569   -0.000176
   -6   -5    0    5    1    0.000859   -0.007818
   -6   -5    0    6    1    0.005600    0.002679
   -6   -5    0    7    1   -0.000931    0.000174
   -6   -5    0    8    1   -0.003103    0.001884
   -6   -5    0    1    2    0.010494    0.000075
   -6   -5    0    2    2   -0.001458   -0.002332
   -6   -5    0    3    2    0.005043   -0.005051
   -6   -5    0    4    2    0.003829    0.006550
   -6   -5    0    5    2   -0.000405    0.002673
   -6   -5    0    6    2   -0.009747   -0.004231
   -6   -5    0    7    2   -0.007307    0.007945
   -6   -5    0    8    2    0.001266    0.002933
   -6   -5    0    1    3   -0.003954    0.002390
   -6   -5    0    2    3    0.000147   -0.005577
   -6   -5    0    3    3   -0.002579    0.000963
   -6   -5    0    4    3   -0.004402    0.000296
   -6   -5    0    5    3    0.002122   -0.001662
   -6   -5    0    6    3    0.003939   -0.001961
   -6   -5    0    7    3   -0.001817   -0.003005
   -6   -5    0    8    3   -0.003774   -0.001851
   -6   -5    0    1    4    0.002503    0.001792
   -6   -5    0    2    4   -0.005899    0.004613
   -6   -5    0    3    4    0.002920    0.002569
   -6   -5    0    4    4    0.000389   -0.000068
   -6   -5    0    5    4   -0.010688    0.001577
   -6   -5    0    6    4   -0.001968    0.001872
   -6   -5    0    7    4   -0.000640    0.001730
   -6   -5    0    8    4   -0.002005    0.002600
   -6   -5    0    1    5    0.009906   -0.001691
   -6   -5    0    2    5   -0.003838   -0.000969
   -6   -5    0    3    5    0.000885   -0.002457
   -6   -5    0    4    5    0.007196    0.006855
   -6   -5    0    5    5   -0.000401    0.000100
   -6   -5    0    6    5   -0.008655   -0.002661
   -6   -5    0    7    5   -0.004698    0.007648
   -6   -5    0    8    5    0.003631    0.002304
   -6   -5    0    1    6   -0.001088   -0.001741
   -6   -5    0    2    6    0.007612    0.000848
   -6   -5    0    3    6    0.003940   -0.004305
   -6   -5    0    4    6   -0.000523    0.002207
   -6   -5    0    5    6    0.006782    0.002406
   -6   -5    0    6    6    0.001741   -0.005256
   -6   -5    0    7    6   -0.001277   -0.003180
   -6   -5    0    8    6    0.001137   -0.002958
   -6   -5    0    1    7    0.004305    0.001168
   -6   -5    0    2    7   -0.001384    0.007499
   -6   -5    0    3    7    0.005287    0.001143
   -6   -5    0    4    7   -0.000778    0.001205
   -6   -5    0    5    7   -0.001713    0.006930
   -6   -5    0    6    7    0.001003   -0.000124
   -6   -5    0    7    7   -0.000359   -0.000227
   -6   -5    0    8    7    0.002317    0.002031
   -6   -5    0    1    8    0.003905    0.001486
   -6   -5    0    2    8   -0.003595   -0.000860
   -6   -5    0    3    8    0.004270    0.000224
   -6   -5    0    4    8   -0.001418    0.002536
   -6   -5    0    5    8   -0.002782   -0.000177
   -6   -5    0    6    8    0.001081   -0.001685
   -6   -5    0    7    8   -0.003543    0.000896
   -6   -5    0    8    8   -0.004473    0.003314
   -6   -5    1    1    1   -0.001095    0.000896
   -6   -5    1    2    1    0.001370    0.000023
   -6   -5    1    3    1   -0.000335   -0.000285
   -6   -5    1    4    1    0.000660    0.000147
   -6   -5    1    5    1    0.000664    0.000591
   -6   -5    1    6    1   -0.001290   -0.001110
   -6   -5    1    7    1   -0.000002   -0.000268
   -6   -5    1    8    1    0.001792   -0.001178
   -6   -5    1    1    2    0.000045   -0.000011
   -6   -5    1    2    2   -0.000269    0.000184
   -6   -5    1    3    2   -0.000283    0.000136
   -6   -5    1    4    2    0.000127    0.000006
   -6   -5    1    5    2   -0.000636   -0.000523
   -6   -5    1    6    2    0.000439    0.000749
   -6   -5    1    7    2    0.000417    0.000164
   -6   -5    1    8    2   -0.001138   -0.001465
   -6   -5    1    1    3   -0.000127    0.000077
   -6   -5    1    2    3    0.000648    0.000379
   -6   -5    1    3    3    0.000179   -0.000243
   -6   -5    1    4    3   -0.000099    0.000113
   -6   -5    1    5    3    0.000894   -0.000019
   -6   -5    1    6    3    0.000245   -0.000433
   -6   -5    1    7    3    0.000182   -0.000090
   -6   -5    1    8    3    0.000489   -0.000492
   -6   -5    1    1    4    0.000427    0.000409
   -6   -5    1    2    4   -0.000445   -0.000353
   -6   -5    1    3    4    0.000351    0.000395
   -6   -5    1    4    4   -0.000035   -0.000249
   -6   -5    1    5    4   -0.000312    0.000145
   -6   -5    1    6    4   -0.000090    0.000739
   -6   -5    1    7    4   -0.000270    0.000298
   -6   -5    1    8    4   -0.000645   -0.000364
   -6   -5    1    1    5   -0.000549    0.000181
   -6   -5    1    2    5    0.001200   -0.000033
   -6   -5    1    3    5   -0.000186   -0.000549
   -6   -5    1    4    5   -0.000252    0.000000
   -6   -5    1    5    5    0.000616    0.000245
   -6   -5    1    6    5    0.000578   -0.000011
   -6   -5    1    7    5    0.000551    0.000303
   -6   -5    1    8    5   -0.000828   -0.002064
   -6   -5    1    1    6    0.000819   -0.000685
   -6   -5    1    2    6   -0.000524    0.000294
   -6   -5    1    3    6   -0.000656   -0.000086
   -6   -5    1    4    6   -0.000508    0.000402
   -6   -5    1    5    6    0.000292   -0.000677
   -6   -5    1    6    6    0.000475   -0.000734
   -6   -5    1    7    6    0.000271   -0.000225
   -6   -5    1    8    6    0.000781    0.000879
   -6   -5    1    1    7    0.000668    0.000251
   -6   -5    1    2    7   -0.000473   -0.000234
   -6   -5    1    3    7   -0.000304   -0.000170
   -6   -5    1    4    7   -0.000275   -0.000075
   -6   -5    1    5    7    0.000093   -0.000254
   -6   -5    1    6    7    0.000066    0.000069
   -6   -5    1    7    7    0.000003    0.000190
   -6   -5    1    8    7    0.000215    0.000012
   -6   -5    1    1    8   -0.000470    0.000112
   -6   -5    1    2    8   -0.000130   -0.001245
   -6   -5    1    3    8    0.000860    0.000047
   -6   -5    1    4    8    0.001075    0.000184
   -6   -5    1    5    8   -0.001242    0.001189
   -6   -5    1    6    8   -0.002934    0.002073
   -6   -5    1    7    8   -0.001061    0.000775
   -6   -5    1    8    8    0.000978   -0.000964
   -6   -4   -1    1    1   -0.001131   -0.000682
   -6   -4   -1    2    1    0.000732   -0.000782
   -6   -4   -1    3    1    0.000497   -0.000645
   -6   -4   -1    4    1    0.000741    0.000739
   -6   -4   -1    5    1   -0.001246   -0.000115
   -6   -4   -1    6    1    0.000108   -0.001008
   -6   -4   -1    7    1   -0.000372   -0.000208
   -6   -4   -1    8    1   -0.003718    0.002033
   -6   -4   -1    1    2   -0.000732   -0.000004
   -6   -4   -1    2    2    0.000682   -0.000136
   -6   -4   -1    3    2   -0.000899    0.000906
   -6   -4   -1    4    2    0.000202   -0.000085
   -6   -4   -1    5    2   -0.000633    0.000146
   -6   -4   -1    6    2   -0.000572    0.000055
   -6   -4   -1    7    2    0.000080   -0.000292
   -6   -4   -1    8    2    0.001057    0.000426
   -6   -4   -1    1    3   -0.000443   -0.000044
   -6   -4   -1    2    3    0.000782    0.000023
   -6   -4   -1    3    3   -0.000014   -0.000121
   -6   -4   -1    4    3    0.000655    0.000397
   -6   -4   -1    5    3   -0.000375   -0.000364
   -6   -4   -1    6    3   -0.001325   -0.000160
   -6   -4   -1    7    3   -0.000464    0.000213
   -6   -4   -1    8    3   -0.000123   -0.000247
   -6   -4   -1    1    4    0.000363    0.000571
   -6   -4   -1    2    4   -0.000026    0.000483
   -6   -4   -1    3    4   -0.000264    0.000459
   -6   -4   -1    4    4   -0.000118   -0.000061
   -6   -4   -1    5    4    0.000384    0.000266
   -6   -4   -1    6    4   -0.000565   -0.000090
   -6   -4   -1    7    4   -0.000207    0.000013
   -6   -4   -1    8    4    0.003743    0.000817
   -6   -4   -1    1    5   -0.000434   -0.000003
   -6   -4   -1    2    5    0.000684   -0.001051
   -6   -4   -1    3    5   -0.000265    0.000384
   -6   -4   -1    4    5    0.000484   -0.000020
   -6   -4   -1    5    5   -0.000300    0.000453
   -6   -4   -1    6    5   -0.000410    0.000053
   -6   -4   -1    7    5   -0.000102   -0.000129
   -6   -4   -1    8    5   -0.003066   -0.000830
   -6   -4   -1    1    6   -0.000866    0.000115
   -6   -4   -1    2    6    0.000329    0.000067
   -6   -4   -1    3    6    0.000803   -0.000799
   -6   -4   -1    4    6    0.000695   -0.000289
   -6   -4   -1    5    6   -0.000170   -0.000383
   -6   -4   -1    6    6    0.000250    0.000610
   -6   -4   -1    7    6    0.000285    0.000561
   -6   -4   -1    8    6   -0.003794   -0.002945
   -6   -4   -1    1    7    0.000031    0.000185
   -6   -4   -1    2    7    0.000269   -0.000005
   -6   -4   -1    3    7    0.001071   -0.000331
   -6   -4   -1    4    7    0.000198   -0.000171
   -6   -4   -1    5    7    0.000116    0.000031
   -6   -4   -1    6    7    0.000394    0.000304
   -6   -4   -1    7    7    0.000017    0.000313
   -6   -4   -1    8    7   -0.000876   -0.001525
   -6   -4   -1    1    8    0.000564    0.000082
   -6   -4   -1    2    8   -0.000365    0.000183
   -6   -4   -1    3    8   -0.001909    0.001293
   -6   -4   -1    4    8   -0.000532    0.000696
   -6   -4   -1    5    8    0.000655   -0.001592
   -6   -4   -1    6    8   -0.000456   -0.001638
   -6   -4   -1    7    8   -0.000204   -0.000335
   -6   -4   -1    8    8    0.000439   -0.000592
   -6   -4    0    1    1    0.006693    0.005046
   -6   -4    0    2    1   -0.009077    0.002168
   -6   -4    0    3    1    0.002996    0.002147
   -6   -4    0    4    1   -0.000297    0.000136
   -6   -4    0    5    1   -0.008393    0.001088
   -6   -4    0    6    1   -0.002437    0.003376
   -6   -4    0    7    1   -0.001954    0.003781
   -6   -4    0    8    1    0.000451    0.005333
   -6   -4    0    1    2    0.000435   -0.004174
   -6   -4    0    2    2   -0.002021   -0.001143
   -6   -4    0    3    2   -0.002425   -0.004189
   -6   -4    0    4    2    0.008185   -0.001691
   -6   -4    0    5    2   -0.000888    0.000316
   -6   -4    0    6    2   -0.005653    0.002726
   -6   -4    0    7    2    0.004092    0.008914
   -6   -4    0    8    2    0.002190    0.000852
   -6   -4    0    1    3    0.002563    0.002327
   -6   -4    0    2    3   -0.006452   -0.002574
   -6   -4    0    3    3    0.003596   -0.000208
   -6   -4    0    4    3   -0.000975    0.002304
   -6   -4    0    5    3   -0.003683    0.000252
   -6   -4    0    6    3   -0.002286   -0.000901
   -6   -4    0    7    3   -0.004214    0.002045
   -6   -4    0    8    3   -0.001128    0.002867
   -6   -4    0    1    4    0.001487   -0.001191
   -6   -4    0    2    4    0.002770    0.006104
   -6   -4    0    3    4    0.005139   -0.002857
   -6   -4    0    4    4    0.000708   -0.000032
   -6   -4    0    5    4   -0.002520    0.008774
   -6   -4    0    6    4    0.000057   -0.000216
   -6   -4    0    7    4    0.001182    0.000346
   -6   -4    0    8    4    0.003109    0.001584
   -6   -4    0    1    5   -0.002253   -0.006039
   -6   -4    0    2    5    0.001241    0.001440
   -6   -4    0    3    5   -0.006527    0.002602
   -6   -4    0    4    5    0.009433   -0.002523
   -6   -4    0    5    5    0.001178   -0.004509
   -6   -4    0    6    5   -0.001715    0.003824
   -6   -4    0    7    5    0.006196    0.006017
   -6   -4    0    8    5    0.002850   -0.000557
   -6   -4    0    1    6   -0.001408   -0.003876
   -6   -4    0    2    6    0.000666   -0.006803
   -6   -4    0    3    6   -0.003272   -0.003130
   -6   -4    0    4    6   -0.000980    0.002265
   -6   -4    0    5    6    0.006613   -0.006709
   -6   -4    0    6    6    0.002268   -0.000587
   -6   -4    0    7    6   -0.002548    0.000079
   -6   -4    0    8    6   -0.002346   -0.003510
   -6   -4    0    1    7    0.001903   -0.002291
   -6   -4    0    2    7    0.004035    0.004203
   -6   -4    0    3    7   -0.000242   -0.002440
   -6   -4    0    4    7   -0.000117    0.001132
   -6   -4    0    5    7    0.007741    0.003334
   -6   -4    0    6    7    0.001760   -0.000874
   -6   -4    0    7    7    0.000837   -0.000785
   -6   -4    0    8    7    0.002707   -0.002079
   -6   -4    0    1    8    0.004048   -0.003245
   -6   -4    0    2    8   -0.001654    0.002251
   -6   -4    0    3    8    0.002356   -0.003013
   -6   -4    0    4    8    0.001170    0.001642
   -6   -4    0    5    8   -0.000330    0.000528
   -6   -4    0    6    8   -0.000418    0.000600
   -6   -4    0    7    8   -0.000021    0.002618
   -6   -4    0    8    8   -0.000271    0.000610
   -6   -4    1    1    1    0.000579    0.000864
   -6   -4    1    2    1   -0.000017   -0.000891
   -6   -4    1    3    1   -0.001032    0.000003
   -6   -4    1    4    1   -0.000208   -0.000039
   -6   -4    1    5    1    0.001227   -0.000615
   -6   -4    1    6    1   -0.000760   -0.000473
   -6   -4    1    7    1   -0.000505    0.000315
   -6   -4    1    8    1    0.000912   -0.002014
   -6   -4    1    1    2    0.000351   -0.000050
   -6   -4    1    2    2   -0.000039    0.000337
   -6   -4    1    3    2   -0.000199    0.000338
   -6   -4    1    4    2   -0.000585   -0.000202
   -6   -4    1    5    2   -0.000102    0.000296
   -6   -4    1    6    2    0.001779    0.000554
   -6   -4    1    7    2    0.000836   -0.000103
   -6   -4    1    8    2   -0.002281   -0.000802
   -6   -4    1    1    3    0.000528   -0.000316
   -6   -4    1    2    3    0.000526    0.000024
   -6   -4    1    3    3   -0.000111   -0.000266
   -6   -4    1    4    3   -0.000096    0.000390
   -6   -4    1    5    3    0.000276   -0.000796
   -6   -4    1    6    3   -0.000269   -0.000798
   -6   -4    1    7    3   -0.000447   -0.000105
   -6   -4    1    8    3   -0.000178   -0.000868
   -6   -4    1    1    4    0.001604   -0.000642
   -6   -4    1    2    4   -0.000388    0.000460
   -6   -4    1    3    4    0.001333   -0.000476
   -6   -4    1    4    4   -0.000405    0.000015
   -6   -4    1    5    4   -0.000052    0.000204
   -6   -4    1    6    4    0.000756    0.000440
   -6   -4    1    7    4    0.000205    0.000116
   -6   -4    1    8    4   -0.002349    0.000373
   -6   -4    1    1    5   -0.001204    0.000369
   -6   -4    1    2    5    0.000350   -0.001259
   -6   -4    1    3    5   -0.001130   -0.000324
   -6   -4    1    4    5    0.000149   -0.000050
   -6   -4    1    5    5    0.000298    0.000139
   -6   -4    1    6    5   -0.000209   -0.000206
   -6   -4    1    7    5    0.000093    0.000220
   -6   -4    1    8    5    0.000039    0.000603
   -6   -4    1    1    6   -0.002705    0.000022
   -6   -4    1    2    6    0.000538    0.000278
   -6   -4    1    3    6   -0.002339    0.001005
   -6   -4    1    4    6    0.000660    0.000517
   -6   -4    1    5    6   -0.000243   -0.000302
   -6   -4    1    6    6   -0.000585   -0.001038
   -6   -4    1    7    6    0.000308   -0.000379
   -6   -4    1    8    6    0.003886    0.001065
   -6   -4    1    1    7   -0.000342   -0.000469
   -6   -4    1    2    7   -0.000287    0.000173
   -6   -4    1    3    7   -0.000566   -0.000089
   -6   -4    1    4    7   -0.000100    0.000167
   -6   -4    1    5    7   -0.000006    0.000008
   -6   -4    1    6    7    0.000361   -0.000159
   -6   -4    1    7    7    0.000408    0.000169
   -6   -4    1    8    7    0.000739    0.000947
   -6   -4    1    1    8   -0.001603    0.000568
   -6   -4    1    2    8   -0.000127   -0.001279
   -6   -4    1    3    8    0.001167   -0.001373
   -6   -4    1    4    8    0.002254   -0.001101
   -6   -4    1    5    8   -0.001517    0.001018
   -6   -4    1    6    8   -0.002012    0.002524
   -6   -4    1    7    8   -0.000424    0.001159
   -6   -4    1    8    8   -0.000454   -0.000173
   -6   -3   -1    1    1   -0.000725   -0.000113
   -6   -3   -1    2    1    0.000671   -0.000518
   -6   -3   -1    3    1    0.001787   -0.000723
   -6   -3   -1    4    1    0.000805    0.000040
   -6   -3   -1    5    1   -0.000381   -0.000351
   -6   -3   -1    6    1    0.001016   -0.000104
   -6   -3   -1    7    1   -0.000273    0.000618
   -6   -3   -1    8    1    0.000269    0.002147
   -6   -3   -1    1    2   -0.000208    0.000413
   -6   -3   -1    2    2   -0.000301   -0.000737
   -6   -3   -1    3    2   -0.000830    0.001163
   -6   -3   -1    4    2    0.000029   -0.000329
   -6   -3   -1    5    2    0.000170    0.001175
   -6   -3   -1    6    2   -0.001061    0.000850
   -6   -3   -1    7    2   -0.000082   -0.000386
   -6   -3   -1    8    2    0.000446    0.000852
   -6   -3   -1    1    3   -0.001528   -0.000109
   -6   -3   -1    2    3    0.000489   -0.000043
   -6   -3   -1    3    3    0.000254    0.000062
   -6   -3   -1    4    3    0.001043    0.000174
   -6   -3   -1    5    3   -0.000397   -0.000400
   -6   -3   -1    6    3   -0.000660   -0.000128
   -6   -3   -1    7    3   -0.000373    0.000350
   -6   -3   -1    8    3    0.001321    0.000292
   -6   -3   -1    1    4    0.000451    0.000438
   -6   -3   -1    2    4   -0.000008    0.000001
   -6   -3   -1    3    4   -0.000675    0.000465
   -6   -3   -1    4    4    0.000012   -0.000104
   -6   -3   -1    5    4    0.000864   -0.000033
   -6   -3   -1    6    4   -0.001225    0.000105
   -6   -3   -1    7    4   -0.000065   -0.000077
   -6   -3   -1    8    4    0.003756   -0.001906
   -6   -3   -1    1    5   -0.000188   -0.000369
   -6   -3   -1    2    5   -0.000339   -0.001122
   -6   -3   -1    3    5    0.000096    0.000212
   -6   -3   -1    4    5   -0.000053   -0.000469
   -6   -3   -1    5    5   -0.000319    0.000736
   -6   -3   -1    6    5    0.000562    0.000970
   -6   -3   -1    7    5    0.000174    0.000168
   -6   -3   -1    8    5   -0.004349    0.000648
   -6   -3   -1    1    6   -0.001798   -0.000521
   -6   -3   -1    2    6    0.000375    0.000234
   -6   -3   -1    3    6    0.000114   -0.000697
   -6   -3   -1    4    6    0.000104   -0.000072
   -6   -3   -1    5    6   -0.001362   -0.000036
   -6   -3   -1    6    6    0.002230   -0.000101
   -6   -3   -1    7    6    0.000270    0.000255
   -6   -3   -1    8    6   -0.006092   -0.000388
   -6   -3   -1    1    7   -0.000154   -0.000439
   -6   -3   -1    2    7    0.000093   -0.000087
   -6   -3   -1    3    7    0.000236   -0.000374
   -6   -3   -1    4    7   -0.000228   -0.000185
   -6   -3   -1    5    7   -0.000424   -0.000093
   -6   -3   -1    6    7    0.001302    0.000560
   -6   -3   -1    7    7    0.000217    0.000275
   -6   -3   -1    8    7   -0.003216   -0.002196
   -6   -3   -1    1    8    0.001012    0.000410
   -6   -3   -1    2    8   -0.001942    0.000041
   -6   -3   -1    3    8   -0.000938    0.001170
   -6   -3   -1    4    8   -0.000604    0.000295
   -6   -3   -1    5    8   -0.000558   -0.000487
   -6   -3   -1    6    8    0.000121   -0.000166
   -6   -3   -1    7    8    0.000792   -0.000337
   -6   -3   -1    8    8   -0.000193    0.000155
   -6   -3    0    1    1    0.004656    0.001833
   -6   -3    0    2    1    0.000422    0.008744
   -6   -3    0    3    1    0.002287   -0.003221
   -6   -3    0    4    1    0.000799   -0.000654
   -6   -3    0    5    1   -0.000226    0.007165
   -6   -3    0    6    1   -0.000723   -0.000516
   -6   -3    0    7    1    0.003466    0.002203
   -6   -3    0    8    1    0.004290    0.001021
   -6   -3    0    1    2   -0.006564   -0.002925
   -6   -3    0    2    2    0.003465   -0.000015
   -6   -3    0    3    2   -0.002145   -0.000861
   -6   -3    0    4    2    0.002396   -0.005228
   -6   -3    0    5    2   -0.001440   -0.003750
   -6   -3    0    6    2    0.002903    0.002389
   -6   -3    0    7    2    0.008645    0.001114
   -6   -3    0    8    2    0.001986   -0.001102
   -6   -3    0    1    3    0.004532   -0.000051
   -6   -3    0    2    3   -0.005157    0.004167
   -6   -3    0    3    3    0.004063   -0.003272
   -6   -3    0    4    3    0.001347    0.000625
   -6   -3    0    5    3   -0.001429    0.004156
   -6   -3    0    6    3   -0.002953    0.000590
   -6   -3    0    7    3   -0.000475    0.003947
   -6   -3    0    8    3    0.002460    0.002400
   -6   -3    0    1    4   -0.001486   -0.001657
   -6   -3    0    2    4    0.004893   -0.001261
   -6   -3    0    3    4    0.000497   -0.003316
   -6   -3    0    4    4    0.000520   -0.000077
   -6   -3    0    5    4    0.004088    0.004229
   -6   -3    0    6    4    0.000535   -0.002225
   -6   -3    0    7    4   -0.000142   -0.001163
   -6   -3    0    8    4    0.002660   -0.001829
   -6   -3    0    1    5   -0.007564   -0.001394
   -6   -3    0    2    5    0.005414    0.000961
   -6   -3    0    3    5   -0.003989    0.005017
   -6   -3    0    4    5    0.000100   -0.006581
   -6   -3    0    5    5    0.001187   -0.006262
   -6   -3    0    6    5    0.005506    0.003793
   -6   -3    0    7    5    0.007257   -0.001171
   -6   -3    0    8    5    0.000521   -0.001934
   -6   -3    0    1    6    0.000387   -0.002645
   -6   -3    0    2    6   -0.006352   -0.004183
   -6   -3    0    3    6   -0.001942   -0.000101
   -6   -3    0    4    6    0.001334   -0.000463
   -6   -3    0    5    6   -0.004239   -0.006280
   -6   -3    0    6    6   -0.001948    0.006204
   -6   -3    0    7    6   -0.001298    0.003249
   -6   -3    0    8    6   -0.005007    0.000140
   -6   -3    0    1    7    0.000085   -0.001143
   -6   -3    0    2    7    0.004179   -0.001341
   -6   -3    0    3    7   -0.003753    0.000067
   -6   -3    0    4    7    0.000287    0.000240
   -6   -3    0    5    7    0.005244   -0.005343
   -6   -3    0    6    7   -0.000841   -0.000371
   -6   -3    0    7    7    0.000333   -0.000925
   -6   -3    0    8    7   -0.001009   -0.003459
   -6   -3    0    1    8    0.002398   -0.003138
   -6   -3    0    2    8    0.000847    0.002154
   -6   -3    0    3    8    0.000160   -0.002441
   -6   -3    0    4    8    0.000489   -0.000838
   -6   -3    0    5    8    0.001001   -0.000033
   -6   -3    0    6    8   -0.000553    0.000766
   -6   -3    0    7    8    0.001833    0.000524
   -6   -3    0    8    8   -0.002963   -0.003405
   -6   -3    1    1    1    0.002799   -0.000447
   -6   -3    1    2    1   -0.001407   -0.000446
   -6   -3    1    3    1    0.000612   -0.000013
   -6   -3    1    4    1   -0.000976   -0.000069
   -6   -3    1    5    1    0.000668   -0.000866
   -6   -3    1    6    1    0.000827    0.000524
   -6   -3    1    7    1    0.000637    0.000681
   -6   -3    1    8    1   -0.002301   -0.000753
   -6   -3    1    1    2    0.000723    0.000602
   -6   -3    1    2    2   -0.000271   -0.000247
   -6   -3    1    3    2   -0.000670    0.000593
   -6   -3    1    4    2   -0.000360   -0.000245
   -6   -3    1    5    2   -0.000018    0.000965
   -6   -3    1    6    2   -0.000118   -0.000188
   -6   -3    1    7    2    0.000113   -0.000456
   -6   -3    1    8    2   -0.000326    0.001334
   -6   -3    1    1    3    0.000581   -0.000304
   -6   -3    1    2    3    0.000255   -0.000355
   -6   -3    1    3    3    0.000287    0.000158
   -6   -3    1    4    3   -0.000116    0.000184
   -6   -3    1    5    3   -0.000313   -0.000508
   -6   -3    1    6    3    0.000582    0.000007
   -6   -3    1    7    3    0.000224    0.000077
   -6   -3    1    8    3   -0.002093   -0.000747
   -6   -3    1    1    4    0.000301   -0.000642
   -6   -3    1    2    4    0.000310    0.000426
   -6   -3    1    3    4    0.000407   -0.000452
   -6   -3    1    4    4   -0.000016    0.000246
   -6   -3    1    5    4    0.000013   -0.000150
   -6   -3    1    6    4    0.000505   -0.000419
   -6   -3    1    7    4    0.000249   -0.000403
   -6   -3    1    8    4   -0.001694    0.000869
   -6   -3    1    1    5   -0.001292    0.000778
   -6   -3    1    2    5   -0.000508   -0.001293
   -6   -3    1    3    5   -0.001164    0.000346
   -6   -3    1    4    5    0.000647   -0.000345
   -6   -3    1    5    5   -0.000313    0.000208
   -6   -3    1    6    5   -0.001215    0.000309
   -6   -3    1    7    5   -0.000242    0.000240
   -6   -3    1    8    5    0.001770    0.001752
   -6   -3    1    1    6   -0.002453    0.000718
   -6   -3    1    2    6    0.000443   -0.000137
   -6   -3    1    3    6   -0.001834    0.000926
   -6   -3    1    4    6    0.000299   -0.000031
   -6   -3    1    5    6    0.000029    0.000450
   -6   -3    1    6    6   -0.000439    0.000072
   -6   -3    1    7    6   -0.000253    0.000013
   -6   -3    1    8    6    0.004557   -0.000174
   -6   -3    1    1    7   -0.001440   -0.000048
   -6   -3    1    2    7   -0.000152   -0.000021
   -6   -3    1    3    7   -0.000953    0.000118
   -6   -3    1    4    7    0.000171   -0.000077
   -6   -3    1    5    7    0.000016    0.000391
   -6   -3    1    6    7   -0.000117   -0.000041
   -6   -3    1    7    7    0.000118   -0.000043
   -6   -3    1    8    7    0.002104    0.000861
   -6   -3    1    1    8   -0.002864   -0.000019
   -6   -3    1    2    8    0.000825    0.000057
   -6   -3    1    3    8    0.000104   -0.000985
   -6   -3    1    4    8    0.000982   -0.000595
   -6   -3    1    5    8   -0.000753    0.000273
   -6   -3    1    6    8   -0.000125    0.000360
   -6   -3    1    7    8   -0.000081    0.001172
   -6   -3    1    8    8   -0.000889    0.000346
   -6   -2   -1    1    1   -0.000530   -0.000624
   -6   -2   -1    2    1    0.000593   -0.000076
   -6   -2   -1    3    1    0.000190   -0.000060
   -6   -2   -1    4    1    0.000032   -0.000539
   -6   -2   -1    5    1   -0.000264    0.000212
   -6   -2   -1    6    1    0.001380    0.001142
   -6   -2   -1    7    1    0.000166    0.000575
   -6   -2   -1    8    1   -0.000948   -0.001282
   -6   -2   -1    1    2    0.000148    0.000362
   -6   -2   -1    2    2   -0.000572   -0.000091
   -6   -2   -1    3    2    0.000101    0.000538
   -6   -2   -1    4    2   -0.000082    0.000010
   -6   -2   -1    5    2    0.001099    0.000393
   -6   -2   -1    6    2   -0.000402    0.000153
   -6   -2   -1    7    2   -0.000171   -0.000501
   -6   -2   -1    8    2    0.000823    0.001609
   -6   -2   -1    1    3   -0.000908    0.000093
   -6   -2   -1    2    3    0.000529    0.000082
   -6   -2   -1    3    3   -0.000248    0.000441
   -6   -2   -1    4    3    0.000454   -0.000264
   -6   -2   -1    5    3   -0.000512    0.000136
   -6   -2   -1    6    3   -0.000409    0.000443
   -6   -2   -1    7    3   -0.000375    0.000281
   -6   -2   -1    8    3    0.001106   -0.000310
   -6   -2   -1    1    4    0.000082    0.000059
   -6   -2   -1    2    4   -0.000364   -0.000197
   -6   -2   -1    3    4   -0.000335    0.000243
   -6   -2   -1    4    4   -0.000002    0.000175
   -6   -2   -1    5    4    0.000330   -0.000566
   -6   -2   -1    6    4   -0.000309   -0.000319
   -6   -2   -1    7    4    0.000049   -0.000217
   -6   -2   -1    8    4    0.001193   -0.000664
   -6   -2   -1    1    5    0.000498    0.000270
   -6   -2   -1    2    5   -0.000367   -0.000183
   -6   -2   -1    3    5    0.000482    0.000042
   -6   -2   -1    4    5   -0.000609   -0.000441
   -6   -2   -1    5    5    0.000215    0.000431
   -6   -2   -1    6    5    0.000474    0.000666
   -6   -2   -1    7    5    0.000241    0.000025
   -6   -2   -1    8    5   -0.003019    0.000489
   -6   -2   -1    1    6   -0.000404   -0.000006
   -6   -2   -1    2    6    0.000652    0.000267
   -6   -2   -1    3    6    0.000283   -0.000145
   -6   -2   -1    4    6    0.000008   -0.000393
   -6   -2   -1    5    6   -0.000734    0.001006
   -6   -2   -1    6    6    0.000129    0.000676
   -6   -2   -1    7    6   -0.000396    0.000307
   -6   -2   -1    8    6   -0.003000    0.001336
   -6   -2   -1    1    7    0.000499   -0.000363
   -6   -2   -1    2    7    0.000066    0.000017
   -6   -2   -1    3    7    0.000388   -0.000285
   -6   -2   -1    4    7   -0.000239   -0.000151
   -6   -2   -1    5    7   -0.000905    0.000237
   -6   -2   -1    6    7    0.000460    0.000357
   -6   -2   -1    7    7   -0.000071    0.000049
   -6   -2   -1    8    7   -0.002429   -0.000117
   -6   -2   -1    1    8    0.000658    0.000261
   -6   -2   -1    2    8   -0.001590    0.001266
   -6   -2   -1    3    8    0.000265   -0.000329
   -6   -2   -1    4    8   -0.000278   -0.000154
   -6   -2   -1    5    8   -0.000076    0.000438
   -6   -2   -1    6    8    0.001417   -0.000508
   -6   -2   -1    7    8    0.001363   -0.000497
   -6   -2   -1    8    8    0.000630    0.000023
   -6   -2    0    1    1    0.002969    0.000015
   -6   -2    0    2    1    0.005725    0.003319
   -6   -2    0    3    1   -0.001175   -0.002678
   -6   -2    0    4    1   -0.000545   -0.000449
   -6   -2    0    5    1    0.006006    0.002867
   -6   -2    0    6    1   -0.000539   -0.003773
   -6   -2    0    7    1    0.002323   -0.001385
   -6   -2    0    8    1    0.003192   -0.003317
   -6   -2    0    1    2   -0.007741    0.000295
   -6   -2    0    2    2    0.004764   -0.001638
   -6   -2    0    3    2   -0.001167    0.001005
   -6   -2    0    4    2   -0.001932   -0.001933
   -6   -2    0    5    2   -0.002221   -0.001939
   -6   -2    0    6    2    0.004921   -0.000353
   -6   -2    0    7    2    0.001850   -0.005101
   -6   -2    0    8    2    0.000021   -0.002259
   -6   -2    0    1    3    0.002491   -0.000613
   -6   -2    0    2    3   -0.000241    0.004102
   -6   -2    0    3    3    0.002098   -0.003455
   -6   -2    0    4    3    0.001518   -0.001064
   -6   -2    0    5    3    0.000969    0.003114
   -6   -2    0    6    3   -0.001143   -0.000396
   -6   -2    0    7    3    0.002355    0.001228
   -6   -2    0    8    3    0.003012    0.000577
   -6   -2    0    1    4   -0.002503    0.000375
   -6   -2    0    2    4   -0.000212   -0.004426
   -6   -2    0    3    4   -0.002899    0.000466
   -6   -2    0    4    4    0.000953    0.000004
   -6   -2    0    5    4    0.001999   -0.001863
   -6   -2    0    6    4   -0.001888   -0.001796
   -6   -2    0    7    4   -0.001378   -0.000495
   -6   -2    0    8    4   -0.001419   -0.001118
   -6   -2    0    1    5   -0.003551    0.002064
   -6   -2    0    2    5    0.002864    0.000310
   -6   -2    0    3    5    0.001526    0.002219
   -6   -2    0    4    5   -0.005394   -0.002130
   -6   -2    0    5    5   -0.000468   -0.000489
   -6   -2    0    6    5    0.006853    0.001991
   -6   -2    0    7    5    0.000949   -0.004191
   -6   -2    0    8    5    0.001745   -0.000457
   -6   -2    0    1    6    0.000392   -0.000747
   -6   -2    0    2    6   -0.004539    0.002359
   -6   -2    0    3    6    0.003455   -0.000540
   -6   -2    0    4    6   -0.000018   -0.002038
   -6   -2    0    5    6   -0.005481    0.000687
   -6   -2    0    6    6    0.002664    0.005726
   -6   -2    0    7    6    0.002495    0.002132
   -6   -2    0    8    6   -0.000911    0.002588
   -6   -2    0    1    7   -0.001853   -0.000415
   -6   -2    0    2    7    0.001109   -0.003301
   -6   -2    0    3    7   -0.002460    0.001887
   -6   -2    0    4    7    0.000236    0.000041
   -6   -2    0    5    7   -0.000780   -0.005751
   -6   -2    0    6    7   -0.000343    0.001391
   -6   -2    0    7    7    0.000627   -0.000187
   -6   -2    0    8    7   -0.001132   -0.000274
   -6   -2    0    1    8    0.001161   -0.001339
   -6   -2    0    2    8    0.001151   -0.001233
   -6   -2    0    3    8    0.000618   -0.000268
   -6   -2    0    4    8   -0.000124   -0.000752
   -6   -2    0    5    8   -0.000517   -0.002203
   -6   -2    0    6    8    0.000122   -0.000282
   -6   -2    0    7    8    0.001046   -0.001547
   -6   -2    0    8    8   -0.003065   -0.001850
   -6   -2    1    1    1   -0.000342    0.000330
   -6   -2    1    2    1   -0.001199   -0.000131
   -6   -2    1    3    1   -0.000664    0.000319
   -6   -2    1    4    1   -0.000466   -0.000348
   -6   -2    1    5    1    0.000079   -0.000290
   -6   -2    1    6    1    0.001438    0.000492
   -6   -2    1    7    1    0.001527   -0.000137
   -6   -2    1    8    1   -0.001111    0.000983
   -6   -2    1    1    2    0.000847    0.000745
   -6   -2    1    2    2   -0.000014   -0.000250
   -6   -2    1    3    2    0.000006    0.000172
   -6   -2    1    4    2   -0.000256   -0.000056
   -6   -2    1    5    2    0.001065    0.000510
   -6   -2    1    6    2   -0.000218   -0.000080
   -6   -2    1    7    2    0.000325   -0.000157
   -6   -2    1    8    2    0.000589    0.001035
   -6   -2    1    1    3   -0.000020   -0.000064
   -6   -2    1    2    3   -0.000268   -0.000147
   -6   -2    1    3    3    0.000043    0.000227
   -6   -2    1    4    3   -0.000212   -0.000070
   -6   -2    1    5    3   -0.000193    0.000167
   -6   -2    1    6    3    0.000960    0.000427
   -6   -2    1    7    3    0.000434   -0.000049
   -6   -2    1    8    3   -0.001975    0.000188
   -6   -2    1    1    4   -0.000326   -0.000255
   -6   -2    1    2    4    0.000614    0.000113
   -6   -2    1    3    4    0.000071   -0.000031
   -6   -2    1    4    4    0.000213    0.000189
   -6   -2    1    5    4   -0.000198   -0.000098
   -6   -2    1    6    4   -0.000217   -0.000234
   -6   -2    1    7    4   -0.000193   -0.000201
   -6   -2    1    8    4   -0.000741   -0.000145
   -6   -2    1    1    5   -0.000380    0.000665
   -6   -2    1    2    5   -0.000580   -0.000224
   -6   -2    1    3    5   -0.000349    0.000432
   -6   -2    1    4    5    0.000159   -0.000575
   -6   -2    1    5    5   -0.000075    0.000317
   -6   -2    1    6    5   -0.000548    0.000716
   -6   -2    1    7    5   -0.000230    0.000410
   -6   -2    1    8    5    0.001563    0.001217
   -6   -2    1    1    6    0.000966    0.000396
   -6   -2    1    2    6   -0.000533   -0.000111
   -6   -2    1    3    6   -0.000026    0.000051
   -6   -2    1    4    6   -0.000272   -0.000157
   -6   -2    1    5    6    0.000273    0.000392
   -6   -2    1    6    6   -0.000237   -0.000075
   -6   -2    1    7    6   -0.000513    0.000073
   -6   -2    1    8    6    0.002887   -0.000036
   -6   -2    1    1    7   -0.000200    0.000300
   -6   -2    1    2    7   -0.000011    0.000039
   -6   -2    1    3    7    0.000141   -0.000128
   -6   -2    1    4    7    0.000126   -0.000161
   -6   -2    1    5    7   -0.000002    0.000267
   -6   -2    1    6    7   -0.000534   -0.000175
   -6   -2    1    7    7   -0.000343    0.000010
   -6   -2    1    8    7    0.001900   -0.000053
   -6   -2    1    1    8   -0.001767   -0.000625
   -6   -2    1    2    8    0.000511   -0.000326
   -6   -2    1    3    8   -0.000355    0.000112
   -6   -2    1    4    8    0.000214   -0.000561
   -6   -2    1    5    8   -0.002031    0.001664
   -6   -2    1    6    8   -0.002327    0.002264
   -6   -2    1    7    8   -0.001243    0.001248
   -6   -2    1    8    8    0.000411    0.000087
   -6   -1   -1    1    1    0.001057   -0.000501
   -6   -1   -1    2    1   -0.000081   -0.000126
   -6   -1   -1    3    1    0.000327    0.000015
   -6   -1   -1    4    1   -0.000496   -0.000352
   -6   -1   -1    5    1   -0.001435    0.000328
   -6   -1   -1    6    1    0.000449    0.000648
   -6   -1   -1    7    1   -0.000315   -0.000311
   -6   -1   -1    8    1   -0.003629   -0.001792
   -6   -1   -1    1    2    0.000159    0.000223
   -6   -1   -1    2    2    0.000002    0.000367
   -6   -1   -1    3    2    0.000062    0.000023
   -6   -1   -1    4    2   -0.000266    0.000332
   -6   -1   -1    5    2    0.001370   -0.000470
   -6   -1   -1    6    2    0.000151   -0.000550
   -6   -1   -1    7    2   -0.000192   -0.000096
   -6   -1   -1    8    2    0.000633    0.000766
   -6   -1   -1    1    3   -0.000020    0.000395
[...]
    7    2    1    2    7   -0.000067    0.000459
    7    2    1    3    7    0.000425   -0.000045
    7    2    1    4    7    0.000320    0.000152
    7    2    1    5    7   -0.000283    0.000258
    7    2    1    6    7   -0.001004   -0.000515
    7    2    1    7    7   -0.000367    0.000043
    7    2    1    8    7    0.000118   -0.000602
    7    2    1    1    8   -0.002716    0.001357
    7    2    1    2    8    0.001282   -0.001565
    7    2    1    3    8    0.000593    0.000193
    7    2    1    4    8   -0.000340    0.000221
    7    2    1    5    8   -0.000917   -0.000833
    7    2    1    6    8    0.000474    0.000705
    7    2    1    7    8   -0.001383    0.000501
    7    2    1    8    8    0.001608    0.000226
    7    3   -1    1    1   -0.000868    0.000247
    7    3   -1    2    1   -0.000077   -0.000320
    7    3   -1    3    1    0.000760   -0.000171
    7    3   -1    4    1    0.000134    0.000083
    7    3   -1    5    1   -0.001216   -0.000464
    7    3   -1    6    1   -0.000278    0.000141
    7    3   -1    7    1   -0.001699    0.000050
    7    3   -1    8    1    0.000916    0.002017
    7    3   -1    1    2    0.000237    0.000952
    7    3   -1    2    2    0.000344    0.000151
    7    3   -1    3    2    0.000069    0.000792
    7    3   -1    4    2   -0.000127   -0.000390
    7    3   -1    5    2    0.000002    0.000717
    7    3   -1    6    2    0.000301   -0.000068
    7    3   -1    7    2    0.000191   -0.000168
    7    3   -1    8    2   -0.000693   -0.001700
    7    3   -1    1    3    0.000084   -0.000210
    7    3   -1    2    3   -0.000013   -0.000301
    7    3   -1    3    3    0.000529   -0.000133
    7    3   -1    4    3    0.000053    0.000171
    7    3   -1    5    3   -0.000941   -0.000398
    7    3   -1    6    3   -0.000123   -0.000020
    7    3   -1    7    3   -0.000601   -0.000085
    7    3   -1    8    3   -0.001052   -0.000688
    7    3   -1    1    4    0.000665    0.000106
    7    3   -1    2    4    0.000226    0.000056
    7    3   -1    3    4   -0.000277    0.000228
    7    3   -1    4    4   -0.000217   -0.000066
    7    3   -1    5    4    0.000364   -0.000054
    7    3   -1    6    4   -0.000028    0.000018
    7    3   -1    7    4    0.000445   -0.000001
    7    3   -1    8    4   -0.001202   -0.001153
    7    3   -1    1    5    0.000040    0.001154
    7    3   -1    2    5   -0.001034   -0.001134
    7    3   -1    3    5   -0.000070    0.000493
    7    3   -1    4    5    0.000175   -0.000133
    7    3   -1    5    5   -0.000097    0.000068
    7    3   -1    6    5   -0.000422   -0.000109
    7    3   -1    7    5   -0.000304   -0.000219
    7    3   -1    8    5    0.002134    0.001316
    7    3   -1    1    6   -0.000512   -0.000557
    7    3   -1    2    6   -0.000403    0.000651
    7    3   -1    3    6    0.000576   -0.000651
    7    3   -1    4    6    0.000363    0.000163
    7    3   -1    5    6    0.000045    0.000025
    7    3   -1    6    6    0.000455   -0.000179
    7    3   -1    7    6    0.000026   -0.000011
    7    3   -1    8    6    0.001238    0.002138
    7    3   -1    1    7   -0.000403   -0.000342
    7    3   -1    2    7   -0.000207    0.000591
    7    3   -1    3    7    0.000360   -0.000232
    7    3   -1    4    7    0.000565    0.000140
    7    3   -1    5    7   -0.000089    0.000330
    7    3   -1    6    7   -0.000610   -0.000037
    7    3   -1    7    7   -0.000259    0.000110
    7    3   -1    8    7    0.001747    0.001147
    7    3   -1    1    8   -0.000278    0.000143
    7    3   -1    2    8   -0.001498   -0.000907
    7    3   -1    3    8   -0.002504    0.001533
    7    3   -1    4    8   -0.000644   -0.000018
    7    3   -1    5    8    0.000458   -0.001398
    7    3   -1    6    8    0.000211   -0.000547
    7    3   -1    7    8    0.001613   -0.001022
    7    3   -1    8    8    0.000031   -0.000089
    7    3    0    1    1    0.000890   -0.000255
    7    3    0    2    1    0.000285    0.003663
    7    3    0    3    1    0.002713   -0.001898
    7    3    0    4    1    0.001768    0.000661
    7    3    0    5    1   -0.004215    0.000135
    7    3    0    6    1   -0.001473    0.000622
    7    3    0    7    1   -0.000987    0.001473
    7    3    0    8    1    0.000845   -0.000640
    7    3    0    1    2   -0.001183   -0.006067
    7    3    0    2    2    0.000063   -0.002687
    7    3    0    3    2   -0.004949   -0.004893
    7    3    0    4    2    0.003888   -0.000641
    7    3    0    5    2    0.000424    0.001166
    7    3    0    6    2   -0.003865    0.002624
    7    3    0    7    2    0.004674    0.001375
    7    3    0    8    2    0.000556   -0.001522
    7    3    0    1    3    0.002431    0.001782
    7    3    0    2    3    0.000025    0.004198
    7    3    0    3    3    0.001426   -0.000362
    7    3    0    4    3   -0.000720    0.002251
    7    3    0    5    3    0.002410   -0.001010
    7    3    0    6    3   -0.000779   -0.001379
    7    3    0    7    3   -0.000563    0.001045
    7    3    0    8    3    0.000041    0.001617
    7    3    0    1    4    0.000634    0.002013
    7    3    0    2    4   -0.001216    0.004929
    7    3    0    3    4    0.001409   -0.000412
    7    3    0    4    4   -0.000514   -0.000355
    7    3    0    5    4    0.000679    0.006467
    7    3    0    6    4    0.001756   -0.000896
    7    3    0    7    4    0.000641   -0.000037
    7    3    0    8    4    0.000302    0.001845
    7    3    0    1    5   -0.003532   -0.007075
    7    3    0    2    5    0.002472    0.001258
    7    3    0    3    5   -0.002781   -0.004360
    7    3    0    4    5    0.002889   -0.003370
    7    3    0    5    5   -0.002536    0.001488
    7    3    0    6    5   -0.000775    0.005437
    7    3    0    7    5    0.005352    0.003633
    7    3    0    8    5    0.002109   -0.003122
    7    3    0    1    6    0.001551   -0.003121
    7    3    0    2    6    0.002064   -0.003501
    7    3    0    3    6   -0.002819    0.000425
    7    3    0    4    6    0.000066    0.001512
    7    3    0    5    6    0.001512   -0.002531
    7    3    0    6    6   -0.001397    0.000478
    7    3    0    7    6    0.000180    0.000894
    7    3    0    8    6   -0.001327   -0.000268
    7    3    0    1    7    0.001551   -0.001517
    7    3    0    2    7    0.006663   -0.001259
    7    3    0    3    7   -0.000001   -0.001426
    7    3    0    4    7    0.000331    0.001010
    7    3    0    5    7    0.002566    0.000280
    7    3    0    6    7    0.000105   -0.001195
    7    3    0    7    7    0.000079   -0.000068
    7    3    0    8    7    0.000246   -0.000992
    7    3    0    1    8    0.000761   -0.000376
    7    3    0    2    8    0.002322    0.000508
    7    3    0    3    8   -0.000099   -0.000236
    7    3    0    4    8    0.000680    0.001561
    7    3    0    5    8   -0.000334    0.000284
    7    3    0    6    8    0.001593   -0.001266
    7    3    0    7    8    0.000659    0.001684
    7    3    0    8    8    0.001214    0.000844
    7    3    1    1    1    0.001252    0.000219
    7    3    1    2    1   -0.000792   -0.000467
    7    3    1    3    1    0.000508   -0.000033
    7    3    1    4    1    0.000037   -0.000020
    7    3    1    5    1   -0.000797    0.000200
    7    3    1    6    1   -0.001010   -0.000062
    7    3    1    7    1   -0.000188    0.000591
    7    3    1    8    1   -0.001301   -0.000744
    7    3    1    1    2   -0.000487   -0.000471
    7    3    1    2    2    0.000247    0.000609
    7    3    1    3    2   -0.000441   -0.000123
    7    3    1    4    2   -0.000099    0.000254
    7    3    1    5    2    0.000168    0.000320
    7    3    1    6    2    0.000845   -0.000151
    7    3    1    7    2    0.000003   -0.000160
    7    3    1    8    2   -0.000690    0.001151
    7    3    1    1    3    0.001241    0.000199
    7    3    1    2    3   -0.000488   -0.000614
    7    3    1    3    3    0.000094   -0.000005
    7    3    1    4    3   -0.000224    0.000179
    7    3    1    5    3   -0.000240   -0.000485
    7    3    1    6    3   -0.000243   -0.000365
    7    3    1    7    3   -0.000071    0.000050
    7    3    1    8    3   -0.000109   -0.000326
    7    3    1    1    4    0.000958   -0.000169
    7    3    1    2    4    0.000108    0.000511
    7    3    1    3    4    0.000307   -0.000204
    7    3    1    4    4   -0.000301    0.000079
    7    3    1    5    4    0.000437    0.000350
    7    3    1    6    4    0.000477    0.000093
    7    3    1    7    4   -0.000010   -0.000093
    7    3    1    8    4   -0.000400    0.000230
    7    3    1    1    5    0.000272    0.000087
    7    3    1    2    5   -0.000827   -0.001304
    7    3    1    3    5    0.000294    0.000097
    7    3    1    4    5    0.000345   -0.000111
    7    3    1    5    5   -0.000291   -0.000415
    7    3    1    6    5   -0.000985   -0.000077
    7    3    1    7    5   -0.000487    0.000130
    7    3    1    8    5   -0.000735    0.001594
    7    3    1    1    6   -0.002192    0.000225
    7    3    1    2    6   -0.000059   -0.000890
    7    3    1    3    6   -0.000600    0.000637
    7    3    1    4    6    0.000827   -0.000004
    7    3    1    5    6   -0.000738   -0.000483
    7    3    1    6    6   -0.001031   -0.000255
    7    3    1    7    6   -0.000111   -0.000200
    7    3    1    8    6    0.001843   -0.001016
    7    3    1    1    7   -0.000407   -0.000605
    7    3    1    2    7    0.000260    0.000127
    7    3    1    3    7    0.000070   -0.000156
    7    3    1    4    7    0.000440    0.000158
    7    3    1    5    7   -0.000331   -0.000127
    7    3    1    6    7   -0.000769   -0.000433
    7    3    1    7    7   -0.000152   -0.000075
    7    3    1    8    7   -0.000143   -0.000844
    7    3    1    1    8    0.000535   -0.000965
    7    3    1    2    8    0.000214    0.000528
    7    3    1    3    8    0.001026   -0.001124
    7    3    1    4    8    0.001240    0.000580
    7    3    1    5    8   -0.002037    0.000408
    7    3    1    6    8   -0.001772    0.001050
    7    3    1    7    8   -0.001911    0.001497
    7    3    1    8    8   -0.000072   -0.000023
    7    4   -1    1    1   -0.000600   -0.000229
    7    4   -1    2    1   -0.000206    0.000845
    7    4   -1    3    1    0.000776    0.000156
    7    4   -1    4    1    0.001542    0.000186
    7    4   -1    5    1   -0.001051    0.000456
    7    4   -1    6    1   -0.001977    0.000244
    7    4   -1    7    1   -0.000901    0.000588
    7    4   -1    8    1    0.004590    0.002232
    7    4   -1    1    2    0.001090    0.000176
    7    4   -1    2    2    0.000075   -0.000309
    7    4   -1    3    2    0.000463    0.000058
    7    4   -1    4    2   -0.000923   -0.000168
    7    4   -1    5    2    0.000901    0.000669
    7    4   -1    6    2    0.001055   -0.000022
    7    4   -1    7    2    0.000310   -0.000073
    7    4   -1    8    2   -0.001862   -0.001987
    7    4   -1    1    3   -0.000059    0.000156
    7    4   -1    2    3   -0.000327   -0.000074
    7    4   -1    3    3    0.000408    0.000319
    7    4   -1    4    3    0.000650    0.000254
    7    4   -1    5    3   -0.000939    0.000206
    7    4   -1    6    3   -0.000623   -0.000353
    7    4   -1    7    3   -0.000401   -0.000064
    7    4   -1    8    3    0.000591    0.000933
    7    4   -1    1    4    0.000194   -0.000163
    7    4   -1    2    4   -0.000100   -0.000085
    7    4   -1    3    4   -0.000113   -0.000198
    7    4   -1    4    4   -0.000452    0.000087
    7    4   -1    5    4    0.000223   -0.000439
    7    4   -1    6    4    0.000478   -0.000386
    7    4   -1    7    4    0.000251   -0.000246
    7    4   -1    8    4   -0.000516   -0.001129
    7    4   -1    1    5    0.001013   -0.000019
    7    4   -1    2    5   -0.000877    0.000003
    7    4   -1    3    5    0.000070    0.000562
    7    4   -1    4    5    0.000082   -0.000039
    7    4   -1    5    5    0.000058    0.000198
    7    4   -1    6    5   -0.000199    0.000565
    7    4   -1    7    5   -0.000031    0.000271
    7    4   -1    8    5    0.001944    0.001563
    7    4   -1    1    6   -0.000266    0.000556
    7    4   -1    2    6    0.000726   -0.000153
    7    4   -1    3    6   -0.000093    0.000532
    7    4   -1    4    6    0.000244   -0.000332
    7    4   -1    5    6    0.000232    0.000595
    7    4   -1    6    6    0.000563    0.000484
    7    4   -1    7    6    0.000182   -0.000045
    7    4   -1    8    6    0.000693    0.001617
    7    4   -1    1    7   -0.001379   -0.000541
    7    4   -1    2    7    0.000385    0.000173
    7    4   -1    3    7   -0.000530    0.000088
    7    4   -1    4    7    0.000500   -0.000068
    7    4   -1    5    7    0.000100    0.000297
    7    4   -1    6    7    0.000306    0.000341
    7    4   -1    7    7    0.000207   -0.000034
    7    4   -1    8    7    0.001112    0.000405
    7    4   -1    1    8    0.002007    0.001887
    7    4   -1    2    8   -0.001847   -0.000093
    7    4   -1    3    8   -0.000558    0.001017
    7    4   -1    4    8   -0.001729   -0.000022
    7    4   -1    5    8   -0.000196   -0.000784
    7    4   -1    6    8    0.000178   -0.000698
    7    4   -1    7    8    0.000504   -0.000764
    7    4   -1    8    8   -0.000365    0.000319
    7    4    0    1    1    0.000479   -0.000557
    7    4    0    2    1    0.002493    0.005321
    7    4    0    3    1    0.002591   -0.001620
    7    4    0    4    1    0.001693   -0.000522
    7    4    0    5    1   -0.000605    0.006045
    7    4    0    6    1    0.000907    0.001819
    7    4    0    7    1    0.000539    0.000990
    7    4    0    8    1   -0.002171   -0.002092
    7    4    0    1    2   -0.006864   -0.000723
    7    4    0    2    2   -0.002433   -0.002542
    7    4    0    3    2   -0.004510    0.001230
    7    4    0    4    2    0.001416   -0.006432
    7    4    0    5    2   -0.000169   -0.000958
    7    4    0    6    2    0.000148    0.006031
    7    4    0    7    2    0.002528   -0.001932
    7    4    0    8    2   -0.000288   -0.001637
    7    4    0    1    3    0.001201   -0.001612
    7    4    0    2    3   -0.000431    0.006475
    7    4    0    3    3    0.000470   -0.001888
    7    4    0    4    3    0.002264    0.000932
    7    4    0    5    3   -0.000147    0.004218
    7    4    0    6    3   -0.000874    0.000350
    7    4    0    7    3    0.001423    0.001759
    7    4    0    8    3   -0.000107    0.000517
    7    4    0    1    4    0.000888    0.000001
    7    4    0    2    4    0.005415    0.001974
    7    4    0    3    4   -0.000866   -0.001876
    7    4    0    4    4   -0.000118    0.000090
    7    4    0    5    4    0.006824    0.003889
    7    4    0    6    4    0.000009   -0.002240
    7    4    0    7    4    0.000589   -0.000377
    7    4    0    8    4    0.002055    0.000627
    7    4    0    1    5   -0.007182    0.001127
    7    4    0    2    5    0.001039   -0.002507
    7    4    0    3    5   -0.001526    0.000825
    7    4    0    4    5   -0.002462   -0.006683
    7    4    0    5    5    0.000235    0.000734
    7    4    0    6    5    0.004501    0.004126
    7    4    0    7    5    0.003308   -0.004087
    7    4    0    8    5    0.000023   -0.004381
    7    4    0    1    6   -0.001792   -0.005706
    7    4    0    2    6   -0.002666   -0.003833
    7    4    0    3    6   -0.002664   -0.000759
    7    4    0    4    6    0.001119   -0.000124
    7    4    0    5    6   -0.001935   -0.004504
    7    4    0    6    6   -0.001650    0.003052
    7    4    0    7    6    0.001505    0.000965
    7    4    0    8    6   -0.001718   -0.002105
    7    4    0    1    7   -0.001314   -0.003899
    7    4    0    2    7    0.003926   -0.008141
    7    4    0    3    7   -0.003146   -0.001491
    7    4    0    4    7    0.001568    0.000332
    7    4    0    5    7    0.003424   -0.006060
    7    4    0    6    7   -0.003572    0.000564
    7    4    0    7    7   -0.000242    0.000188
    7    4    0    8    7    0.000486   -0.002762
    7    4    0    1    8   -0.001339   -0.003149
    7    4    0    2    8    0.000761   -0.001595
    7    4    0    3    8   -0.000769   -0.001830
    7    4    0    4    8    0.001142   -0.001345
    7    4    0    5    8    0.001703    0.000782
    7    4    0    6    8    0.002446    0.001583
    7    4    0    7    8    0.002511    0.000313
    7    4    0    8    8    0.001642   -0.001459
    7    4    1    1    1    0.000940    0.000490
    7    4    1    2    1   -0.000513   -0.000525
    7    4    1    3    1    0.000832    0.000266
    7    4    1    4    1    0.000630   -0.000363
    7    4    1    5    1   -0.001372    0.000083
    7    4    1    6    1   -0.001893    0.000025
    7    4    1    7    1   -0.000212    0.000065
    7    4    1    8    1   -0.003080   -0.000995
    7    4    1    1    2   -0.000595    0.000019
    7    4    1    2    2    0.000901    0.000067
    7    4    1    3    2   -0.000399   -0.000056
    7    4    1    4    2    0.000181   -0.000072
    7    4    1    5    2    0.000668    0.000389
    7    4    1    6    2    0.000068   -0.000178
    7    4    1    7    2   -0.000107   -0.000260
    7    4    1    8    2    0.001836    0.002454
    7    4    1    1    3    0.001322    0.000753
    7    4    1    2    3   -0.000857   -0.000730
    7    4    1    3    3    0.000291    0.000475
    7    4    1    4    3   -0.000223   -0.000146
    7    4    1    5    3   -0.000502   -0.000514
    7    4    1    6    3    0.000318    0.000389
    7    4    1    7    3    0.000471   -0.000021
    7    4    1    8    3   -0.001405   -0.001001
    7    4    1    1    4    0.000279   -0.000718
    7    4    1    2    4    0.000151    0.000262
    7    4    1    3    4   -0.000047   -0.000422
    7    4    1    4    4   -0.000361    0.000168
    7    4    1    5    4    0.001088   -0.000190
    7    4    1    6    4    0.001244   -0.000006
    7    4    1    7    4    0.000540   -0.000150
    7    4    1    8    4    0.000095   -0.000206
    7    4    1    1    5   -0.001185    0.000241
    7    4    1    2    5   -0.000832   -0.000185
    7    4    1    3    5   -0.000376    0.000358
    7    4    1    4    5    0.000410   -0.000294
    7    4    1    5    5   -0.000568   -0.000038
    7    4    1    6    5   -0.000259    0.000600
    7    4    1    7    5    0.000423    0.000173
    7    4    1    8    5    0.000620    0.002230
    7    4    1    1    6   -0.000422    0.000929
    7    4    1    2    6   -0.000593   -0.000209
    7    4    1    3    6   -0.000294    0.000554
    7    4    1    4    6    0.000182   -0.000073
    7    4    1    5    6   -0.001286    0.000153
    7    4    1    6    6   -0.001183   -0.000060
    7    4    1    7    6   -0.001020    0.000120
    7    4    1    8    6    0.001685    0.000915
    7    4    1    1    7   -0.000810    0.000218
    7    4    1    2    7    0.000132   -0.000143
    7    4    1    3    7   -0.000367    0.000080
    7    4    1    4    7    0.000163   -0.000019
    7    4    1    5    7   -0.000459   -0.000058
    7    4    1    6    7   -0.000379   -0.000517
    7    4    1    7    7   -0.000309   -0.000212
    7    4    1    8    7    0.000096    0.000209
    7    4    1    1    8   -0.004624   -0.002276
    7    4    1    2    8    0.001635    0.000931
    7    4    1    3    8   -0.000467    0.000211
    7    4    1    4    8    0.002775   -0.000743
    7    4    1    5    8   -0.000587    0.001321
    7    4    1    6    8   -0.000351    0.002487
    7    4    1    7    8    0.000755    0.000799
    7    4    1    8    8    0.000126    0.000013
